<?xml version="1.0" encoding="UTF-8"?>

<!-- generated on 2024-01-30 17:56:45 by Eclipse SUMO GUI Version 1.19.0
<configuration xmlns:xsi="http://www.w3.org/2001/XMLSchema-instance" xsi:noNamespaceSchemaLocation="http://sumo.dlr.de/xsd/sumoConfiguration.xsd">

    <input>
        <net-file value="C:\Users\nicka\School\Capstone\Sumo\config\network.net.xml"/>
        <route-files value="C:\Users\nicka\School\Capstone\Sumo\config\routes.rou.xml"/>
    </input>

    <output>
        <emission-output value="C:/Users/nicka/School/Capstone/Sumo/RawOutputs/emission_rawOut.xml"/>
        <fcd-output value="C:/Users/nicka/School/Capstone/Sumo/RawOutputs/fcd-output_rawOut.xml"/>
        <tripinfo-output value="C:/Users/nicka/School/Capstone/Sumo/RawOutputs/tripinfo_rawOut.xml"/>
    </output>

    <time>
        <begin value="0"/>
        <end value="3600"/>
    </time>

</configuration>
-->

<emission-export xmlns:xsi="http://www.w3.org/2001/XMLSchema-instance" xsi:noNamespaceSchemaLocation="http://sumo.dlr.de/xsd/emission_file.xsd">
    <timestep time="0.00">
        <vehicle id="0" eclass="HBEFA3/PC_G_EU4" CO2="2624.72" CO="164.78" HC="0.81" NOx="1.20" PMx="0.07" fuel="837.22" electricity="0.00" noise="55.94" route="!0" type="DEFAULT_VEHTYPE" waiting="0.00" lane="D0E0_0" pos="5.10" speed="0.00" angle="90.00" x="312.30" y="-1.60"/>
    </timestep>
    <timestep time="1.00">
        <vehicle id="0" eclass="HBEFA3/PC_G_EU4" CO2="4005.83" CO="151.29" HC="0.78" NOx="1.79" PMx="0.09" fuel="1277.71" electricity="0.00" noise="68.01" route="!0" type="DEFAULT_VEHTYPE" waiting="0.00" lane="D0E0_0" pos="7.62" speed="2.52" angle="90.00" x="314.82" y="-1.60"/>
        <vehicle id="1" eclass="HBEFA3/PC_G_EU4" CO2="2624.72" CO="164.78" HC="0.81" NOx="1.20" PMx="0.07" fuel="837.22" electricity="0.00" noise="55.94" route="!1" type="DEFAULT_VEHTYPE" waiting="0.00" lane="B2B1_0" pos="5.10" speed="0.00" angle="180.00" x="98.40" y="187.70"/>
    </timestep>
    <timestep time="2.00">
        <vehicle id="0" eclass="HBEFA3/PC_G_EU4" CO2="3983.26" CO="126.58" HC="0.67" NOx="1.73" PMx="0.08" fuel="1270.50" electricity="0.00" noise="64.78" route="!0" type="DEFAULT_VEHTYPE" waiting="0.00" lane="D0E0_0" pos="11.77" speed="4.15" angle="90.00" x="318.97" y="-1.60"/>
        <vehicle id="1" eclass="HBEFA3/PC_G_EU4" CO2="3644.83" CO="148.83" HC="0.76" NOx="1.63" PMx="0.08" fuel="1162.57" electricity="0.00" noise="66.49" route="!1" type="DEFAULT_VEHTYPE" waiting="0.00" lane="B2B1_0" pos="7.31" speed="2.21" angle="180.00" x="98.40" y="185.49"/>
        <vehicle id="2" eclass="HBEFA3/PC_G_EU4" CO2="2624.72" CO="164.78" HC="0.81" NOx="1.20" PMx="0.07" fuel="837.22" electricity="0.00" noise="55.94" route="!2" type="DEFAULT_VEHTYPE" waiting="0.00" lane="D2E2_0" pos="5.10" speed="0.00" angle="90.00" x="312.30" y="198.40"/>
    </timestep>
    <timestep time="3.00">
        <vehicle id="0" eclass="HBEFA3/PC_G_EU4" CO2="4443.10" CO="115.03" HC="0.63" NOx="1.91" PMx="0.09" fuel="1417.16" electricity="0.00" noise="65.14" route="!0" type="DEFAULT_VEHTYPE" waiting="0.00" lane="D0E0_0" pos="17.47" speed="5.70" angle="90.00" x="324.67" y="-1.60"/>
        <vehicle id="1" eclass="HBEFA3/PC_G_EU4" CO2="4904.19" CO="140.52" HC="0.76" NOx="2.16" PMx="0.10" fuel="1564.23" electricity="0.00" noise="67.87" route="!1" type="DEFAULT_VEHTYPE" waiting="0.00" lane="B2B1_0" pos="11.81" speed="4.51" angle="180.00" x="98.40" y="180.99"/>
        <vehicle id="2" eclass="HBEFA3/PC_G_EU4" CO2="3518.08" CO="148.19" HC="0.76" NOx="1.57" PMx="0.08" fuel="1122.15" electricity="0.00" noise="65.90" route="!2" type="DEFAULT_VEHTYPE" waiting="0.00" lane="D2E2_0" pos="7.18" speed="2.08" angle="90.00" x="314.38" y="198.40"/>
        <vehicle id="3" eclass="HBEFA3/PC_G_EU4" CO2="2624.72" CO="164.78" HC="0.81" NOx="1.20" PMx="0.07" fuel="837.22" electricity="0.00" noise="55.94" route="!3" type="DEFAULT_VEHTYPE" waiting="0.00" lane="E1E2_0" pos="5.10" speed="0.00" angle="0.00" x="401.60" y="112.30"/>
    </timestep>
    <timestep time="4.00">
        <vehicle id="0" eclass="HBEFA3/PC_G_EU4" CO2="7508.79" CO="148.18" HC="0.85" NOx="3.29" PMx="0.16" fuel="2394.95" electricity="0.00" noise="70.49" route="!0" type="DEFAULT_VEHTYPE" waiting="0.00" lane="D0E0_0" pos="25.70" speed="8.23" angle="90.00" x="332.90" y="-1.60"/>
        <vehicle id="1" eclass="HBEFA3/PC_G_EU4" CO2="6416.70" CO="140.72" HC="0.79" NOx="2.81" PMx="0.13" fuel="2046.63" electricity="0.00" noise="69.33" route="!1" type="DEFAULT_VEHTYPE" waiting="0.00" lane="B2B1_0" pos="18.72" speed="6.90" angle="180.00" x="98.40" y="174.08"/>
        <vehicle id="2" eclass="HBEFA3/PC_G_EU4" CO2="5322.22" CO="147.02" HC="0.80" NOx="2.35" PMx="0.11" fuel="1697.56" electricity="0.00" noise="69.14" route="!2" type="DEFAULT_VEHTYPE" waiting="0.00" lane="D2E2_0" pos="11.84" speed="4.66" angle="90.00" x="319.04" y="198.40"/>
        <vehicle id="3" eclass="HBEFA3/PC_G_EU4" CO2="4045.21" CO="151.60" HC="0.79" NOx="1.80" PMx="0.09" fuel="1290.27" electricity="0.00" noise="68.16" route="!3" type="DEFAULT_VEHTYPE" waiting="0.00" lane="E1E2_0" pos="7.65" speed="2.55" angle="0.00" x="401.60" y="114.85"/>
        <vehicle id="4" eclass="HBEFA3/PC_G_EU4" CO2="2624.72" CO="164.78" HC="0.81" NOx="1.20" PMx="0.07" fuel="837.22" electricity="0.00" noise="55.94" route="!4" type="DEFAULT_VEHTYPE" waiting="0.00" lane="C0D0_0" pos="5.10" speed="0.00" angle="90.00" x="212.30" y="-1.60"/>
    </timestep>
    <timestep time="5.00">
        <vehicle id="0" eclass="HBEFA3/PC_G_EU4" CO2="6241.40" CO="105.77" HC="0.63" NOx="2.65" PMx="0.12" fuel="1990.71" electricity="0.00" noise="67.44" route="!0" type="DEFAULT_VEHTYPE" waiting="0.00" lane="D0E0_0" pos="35.54" speed="9.84" angle="90.00" x="342.74" y="-1.60"/>
        <vehicle id="1" eclass="HBEFA3/PC_G_EU4" CO2="5864.62" CO="110.47" HC="0.64" NOx="2.50" PMx="0.11" fuel="1870.54" electricity="0.00" noise="67.11" route="!1" type="DEFAULT_VEHTYPE" waiting="0.00" lane="B2B1_0" pos="27.31" speed="8.59" angle="180.00" x="98.40" y="165.49"/>
        <vehicle id="2" eclass="HBEFA3/PC_G_EU4" CO2="4267.73" CO="107.30" HC="0.59" NOx="1.82" PMx="0.08" fuel="1361.23" electricity="0.00" noise="64.50" route="!2" type="DEFAULT_VEHTYPE" waiting="0.00" lane="D2E2_0" pos="17.86" speed="6.02" angle="90.00" x="325.06" y="198.40"/>
        <vehicle id="3" eclass="HBEFA3/PC_G_EU4" CO2="5512.42" CO="145.22" HC="0.79" NOx="2.43" PMx="0.12" fuel="1758.22" electricity="0.00" noise="69.09" route="!3" type="DEFAULT_VEHTYPE" waiting="0.00" lane="E1E2_0" pos="12.73" speed="5.08" angle="0.00" x="401.60" y="119.93"/>
        <vehicle id="4" eclass="HBEFA3/PC_G_EU4" CO2="2990.73" CO="147.83" HC="0.74" NOx="1.34" PMx="0.07" fuel="953.95" electricity="0.00" noise="62.80" route="!4" type="DEFAULT_VEHTYPE" waiting="0.00" lane="C0D0_0" pos="6.53" speed="1.43" angle="90.00" x="213.73" y="-1.60"/>
        <vehicle id="5" eclass="HBEFA3/PC_G_EU4" CO2="2624.72" CO="164.78" HC="0.81" NOx="1.20" PMx="0.07" fuel="837.22" electricity="0.00" noise="55.94" route="!5" type="DEFAULT_VEHTYPE" waiting="0.00" lane="B1B0_0" pos="5.10" speed="0.00" angle="180.00" x="98.40" y="87.70"/>
    </timestep>
    <timestep time="6.00">
        <vehicle id="0" eclass="HBEFA3/PC_G_EU4" CO2="7921.62" CO="124.08" HC="0.75" NOx="3.39" PMx="0.16" fuel="2526.61" electricity="0.00" noise="69.48" route="!0" type="DEFAULT_VEHTYPE" waiting="0.00" lane="D0E0_0" pos="47.26" speed="11.72" angle="90.00" x="354.46" y="-1.60"/>
        <vehicle id="1" eclass="HBEFA3/PC_G_EU4" CO2="6731.79" CO="111.54" HC="0.67" NOx="2.87" PMx="0.13" fuel="2147.12" electricity="0.00" noise="68.10" route="!1" type="DEFAULT_VEHTYPE" waiting="0.00" lane="B2B1_0" pos="37.61" speed="10.31" angle="180.00" x="98.40" y="155.19"/>
        <vehicle id="2" eclass="HBEFA3/PC_G_EU4" CO2="6797.18" CO="133.62" HC="0.77" NOx="2.95" PMx="0.14" fuel="2167.98" electricity="0.00" noise="69.08" route="!2" type="DEFAULT_VEHTYPE" waiting="0.00" lane="D2E2_0" pos="26.08" speed="8.22" angle="90.00" x="333.28" y="198.40"/>
        <vehicle id="3" eclass="HBEFA3/PC_G_EU4" CO2="5772.73" CO="125.48" HC="0.71" NOx="2.50" PMx="0.12" fuel="1841.24" electricity="0.00" noise="67.67" route="!3" type="DEFAULT_VEHTYPE" waiting="0.00" lane="E1E2_0" pos="19.81" speed="7.07" angle="0.00" x="401.60" y="127.01"/>
        <vehicle id="4" eclass="HBEFA3/PC_G_EU4" CO2="4962.10" CO="148.40" HC="0.79" NOx="2.20" PMx="0.11" fuel="1582.70" electricity="0.00" noise="68.97" route="!4" type="DEFAULT_VEHTYPE" waiting="0.00" lane="C0D0_0" pos="10.57" speed="4.03" angle="90.00" x="217.77" y="-1.60"/>
        <vehicle id="5" eclass="HBEFA3/PC_G_EU4" CO2="3153.81" CO="147.38" HC="0.74" NOx="1.41" PMx="0.07" fuel="1005.97" electricity="0.00" noise="63.91" route="!5" type="DEFAULT_VEHTYPE" waiting="0.00" lane="B1B0_0" pos="6.77" speed="1.67" angle="180.00" x="98.40" y="86.03"/>
        <vehicle id="6" eclass="HBEFA3/PC_G_EU4" CO2="2624.72" CO="164.78" HC="0.81" NOx="1.20" PMx="0.07" fuel="837.22" electricity="0.00" noise="55.94" route="!6" type="DEFAULT_VEHTYPE" waiting="0.00" lane="A1A0_0" pos="5.10" speed="0.00" angle="180.00" x="-1.60" y="87.70"/>
    </timestep>
    <timestep time="7.00">
        <vehicle id="0" eclass="HBEFA3/PC_G_EU4" CO2="8922.77" CO="131.42" HC="0.81" NOx="3.82" PMx="0.18" fuel="2845.92" electricity="0.00" noise="70.39" route="!0" type="DEFAULT_VEHTYPE" waiting="0.00" lane="D0E0_0" pos="60.84" speed="13.59" angle="90.00" x="368.04" y="-1.60"/>
        <vehicle id="1" eclass="HBEFA3/PC_G_EU4" CO2="7659.68" CO="116.15" HC="0.71" NOx="3.26" PMx="0.15" fuel="2443.06" electricity="0.00" noise="69.09" route="!1" type="DEFAULT_VEHTYPE" waiting="0.00" lane="B2B1_0" pos="49.66" speed="12.05" angle="180.00" x="98.40" y="143.14"/>
        <vehicle id="2" eclass="HBEFA3/PC_G_EU4" CO2="8332.35" CO="142.85" HC="0.85" NOx="3.62" PMx="0.17" fuel="2657.61" electricity="0.00" noise="70.47" route="!2" type="DEFAULT_VEHTYPE" waiting="0.00" lane="D2E2_0" pos="36.57" speed="10.49" angle="90.00" x="343.77" y="198.40"/>
        <vehicle id="3" eclass="HBEFA3/PC_G_EU4" CO2="7358.00" CO="134.44" HC="0.79" NOx="3.19" PMx="0.15" fuel="2346.85" electricity="0.00" noise="69.50" route="!3" type="DEFAULT_VEHTYPE" waiting="0.00" lane="E1E2_0" pos="29.06" speed="9.25" angle="0.00" x="401.60" y="136.26"/>
        <vehicle id="4" eclass="HBEFA3/PC_G_EU4" CO2="5637.35" CO="133.19" HC="0.74" NOx="2.46" PMx="0.12" fuel="1798.06" electricity="0.00" noise="68.05" route="!4" type="DEFAULT_VEHTYPE" waiting="0.00" lane="C0D0_0" pos="16.77" speed="6.21" angle="90.00" x="223.97" y="-1.60"/>
        <vehicle id="5" eclass="HBEFA3/PC_G_EU4" CO2="4013.73" CO="135.81" HC="0.71" NOx="1.76" PMx="0.08" fuel="1280.23" electricity="0.00" noise="65.66" route="!5" type="DEFAULT_VEHTYPE" waiting="0.00" lane="B1B0_0" pos="10.32" speed="3.56" angle="180.00" x="98.40" y="82.48"/>
        <vehicle id="6" eclass="HBEFA3/PC_G_EU4" CO2="3329.71" CO="147.54" HC="0.75" NOx="1.49" PMx="0.07" fuel="1062.07" electricity="0.00" noise="64.93" route="!6" type="DEFAULT_VEHTYPE" waiting="0.00" lane="A1A0_0" pos="6.98" speed="1.88" angle="180.00" x="-1.60" y="85.82"/>
        <vehicle id="7" eclass="HBEFA3/PC_G_EU4" CO2="2624.72" CO="164.78" HC="0.81" NOx="1.20" PMx="0.07" fuel="837.22" electricity="0.00" noise="55.94" route="!7" type="DEFAULT_VEHTYPE" waiting="0.00" lane="D1C1_0" pos="5.10" speed="0.00" angle="270.00" x="287.70" y="101.60"/>
    </timestep>
    <timestep time="8.00">
        <vehicle id="0" eclass="HBEFA3/PC_G_EU4" CO2="6536.64" CO="75.96" HC="0.50" NOx="2.67" PMx="0.12" fuel="2084.87" electricity="0.00" noise="68.12" route="!0" type="DEFAULT_VEHTYPE" waiting="0.00" lane="D0E0_0" pos="75.51" speed="14.66" angle="90.00" x="382.71" y="-1.60"/>
        <vehicle id="1" eclass="HBEFA3/PC_G_EU4" CO2="3464.24" CO="26.92" HC="0.20" NOx="1.27" PMx="0.04" fuel="1104.94" electricity="0.00" noise="64.58" route="!1" type="DEFAULT_VEHTYPE" waiting="0.00" lane="B2B1_0" pos="62.09" speed="12.43" angle="180.00" x="98.40" y="130.71"/>
        <vehicle id="2" eclass="HBEFA3/PC_G_EU4" CO2="7412.24" CO="110.37" HC="0.68" NOx="3.14" PMx="0.15" fuel="2364.14" electricity="0.00" noise="68.77" route="!2" type="DEFAULT_VEHTYPE" waiting="0.00" lane="D2E2_0" pos="48.71" speed="12.14" angle="90.00" x="355.91" y="198.40"/>
        <vehicle id="3" eclass="HBEFA3/PC_G_EU4" CO2="9486.15" CO="156.76" HC="0.94" NOx="4.13" PMx="0.20" fuel="3025.61" electricity="0.00" noise="71.60" route="!3" type="DEFAULT_VEHTYPE" waiting="0.00" lane="E1E2_0" pos="40.72" speed="11.66" angle="0.00" x="401.60" y="147.92"/>
        <vehicle id="4" eclass="HBEFA3/PC_G_EU4" CO2="7548.88" CO="144.71" HC="0.84" NOx="3.30" PMx="0.16" fuel="2407.73" electricity="0.00" noise="70.25" route="!4" type="DEFAULT_VEHTYPE" waiting="0.00" lane="C0D0_0" pos="25.41" speed="8.63" angle="90.00" x="232.61" y="-1.60"/>
        <vehicle id="5" eclass="HBEFA3/PC_G_EU4" CO2="4766.19" CO="125.48" HC="0.68" NOx="2.07" PMx="0.10" fuel="1520.21" electricity="0.00" noise="66.31" route="!5" type="DEFAULT_VEHTYPE" waiting="0.00" lane="B1B0_0" pos="15.73" speed="5.41" angle="180.00" x="98.40" y="77.07"/>
        <vehicle id="6" eclass="HBEFA3/PC_G_EU4" CO2="4177.16" CO="135.30" HC="0.71" NOx="1.83" PMx="0.09" fuel="1332.35" electricity="0.00" noise="66.00" route="!6" type="DEFAULT_VEHTYPE" waiting="0.00" lane="A1A0_0" pos="10.80" speed="3.82" angle="180.00" x="-1.60" y="82.00"/>
        <vehicle id="7" eclass="HBEFA3/PC_G_EU4" CO2="3655.34" CO="148.89" HC="0.76" NOx="1.63" PMx="0.08" fuel="1165.92" electricity="0.00" noise="66.54" route="!7" type="DEFAULT_VEHTYPE" waiting="0.00" lane="D1C1_0" pos="7.32" speed="2.22" angle="270.00" x="285.48" y="101.60"/>
        <vehicle id="8" eclass="HBEFA3/PC_G_EU4" CO2="2624.72" CO="164.78" HC="0.81" NOx="1.20" PMx="0.07" fuel="837.22" electricity="0.00" noise="55.94" route="!8" type="DEFAULT_VEHTYPE" waiting="0.00" lane="B1B0_0" pos="5.10" speed="0.00" angle="180.00" x="98.40" y="87.70"/>
    </timestep>
    <timestep time="9.00">
        <vehicle id="0" eclass="HBEFA3/PC_G_EU4" CO2="0.00" CO="0.00" HC="0.00" NOx="0.00" PMx="0.00" fuel="0.00" electricity="0.00" noise="57.99" route="!0" type="DEFAULT_VEHTYPE" waiting="0.00" lane="D0E0_0" pos="86.22" speed="10.71" angle="90.00" x="393.42" y="-1.60"/>
        <vehicle id="1" eclass="HBEFA3/PC_G_EU4" CO2="0.00" CO="0.00" HC="0.00" NOx="0.00" PMx="0.00" fuel="0.00" electricity="0.00" noise="60.24" route="!1" type="DEFAULT_VEHTYPE" waiting="0.00" lane="B2B1_0" pos="73.34" speed="11.25" angle="180.00" x="98.40" y="119.46"/>
        <vehicle id="2" eclass="HBEFA3/PC_G_EU4" CO2="6981.40" CO="92.20" HC="0.59" NOx="2.91" PMx="0.13" fuel="2226.73" electricity="0.00" noise="68.32" route="!2" type="DEFAULT_VEHTYPE" waiting="0.00" lane="D2E2_0" pos="62.18" speed="13.47" angle="90.00" x="369.38" y="198.40"/>
        <vehicle id="3" eclass="HBEFA3/PC_G_EU4" CO2="9463.29" CO="142.06" HC="0.88" NOx="4.07" PMx="0.20" fuel="3018.32" electricity="0.00" noise="70.97" route="!3" type="DEFAULT_VEHTYPE" waiting="0.00" lane="E1E2_0" pos="54.38" speed="13.66" angle="0.00" x="401.60" y="161.58"/>
        <vehicle id="4" eclass="HBEFA3/PC_G_EU4" CO2="7795.42" CO="130.22" HC="0.78" NOx="3.36" PMx="0.16" fuel="2486.36" electricity="0.00" noise="69.59" route="!4" type="DEFAULT_VEHTYPE" waiting="0.00" lane="C0D0_0" pos="36.07" speed="10.67" angle="90.00" x="243.27" y="-1.60"/>
        <vehicle id="5" eclass="HBEFA3/PC_G_EU4" CO2="4740.97" CO="106.52" HC="0.60" NOx="2.02" PMx="0.09" fuel="1512.16" electricity="0.00" noise="65.37" route="!5" type="DEFAULT_VEHTYPE" waiting="0.00" lane="B1B0_0" pos="22.61" speed="6.88" angle="180.00" x="98.40" y="70.19"/>
        <vehicle id="6" eclass="HBEFA3/PC_G_EU4" CO2="6073.94" CO="141.66" HC="0.79" NOx="2.66" PMx="0.13" fuel="1937.31" electricity="0.00" noise="69.17" route="!6" type="DEFAULT_VEHTYPE" waiting="0.00" lane="A1A0_0" pos="17.05" speed="6.25" angle="180.00" x="-1.60" y="75.75"/>
        <vehicle id="7" eclass="HBEFA3/PC_G_EU4" CO2="5286.80" CO="145.33" HC="0.79" NOx="2.33" PMx="0.11" fuel="1686.26" electricity="0.00" noise="68.89" route="!7" type="DEFAULT_VEHTYPE" waiting="0.00" lane="D1C1_0" pos="12.05" speed="4.73" angle="270.00" x="280.75" y="101.60"/>
        <vehicle id="8" eclass="HBEFA3/PC_G_EU4" CO2="3957.66" CO="150.91" HC="0.78" NOx="1.77" PMx="0.09" fuel="1262.34" electricity="0.00" noise="67.82" route="!8" type="DEFAULT_VEHTYPE" waiting="0.00" lane="B1B0_0" pos="7.58" speed="2.48" angle="180.00" x="98.40" y="85.22"/>
        <vehicle id="9" eclass="HBEFA3/PC_G_EU4" CO2="2624.72" CO="164.78" HC="0.81" NOx="1.20" PMx="0.07" fuel="837.22" electricity="0.00" noise="55.94" route="!9" type="DEFAULT_VEHTYPE" waiting="0.00" lane="D4C4_0" pos="5.10" speed="0.00" angle="270.00" x="287.70" y="401.60"/>
    </timestep>
    <timestep time="10.00">
        <vehicle id="0" eclass="HBEFA3/PC_G_EU4" CO2="0.00" CO="0.00" HC="0.00" NOx="0.00" PMx="0.00" fuel="0.00" electricity="0.00" noise="51.10" route="!0" type="DEFAULT_VEHTYPE" waiting="0.00" lane=":E0_1_0" pos="2.82" speed="6.21" angle="82.29" x="399.50" y="-0.94"/>
        <vehicle id="1" eclass="HBEFA3/PC_G_EU4" CO2="4052.75" CO="43.35" HC="0.29" NOx="1.56" PMx="0.06" fuel="1292.64" electricity="0.00" noise="64.88" route="!1" type="DEFAULT_VEHTYPE" waiting="0.00" lane="B2B1_0" pos="85.19" speed="11.85" angle="180.00" x="98.40" y="107.61"/>
        <vehicle id="2" eclass="HBEFA3/PC_G_EU4" CO2="0.00" CO="0.00" HC="0.00" NOx="0.00" PMx="0.00" fuel="0.00" electricity="0.00" noise="59.08" route="!2" type="DEFAULT_VEHTYPE" waiting="0.00" lane="D2E2_0" pos="73.36" speed="11.18" angle="90.00" x="380.56" y="198.40"/>
        <vehicle id="3" eclass="HBEFA3/PC_G_EU4" CO2="6778.26" CO="80.24" HC="0.53" NOx="2.78" PMx="0.13" fuel="2161.93" electricity="0.00" noise="68.36" route="!3" type="DEFAULT_VEHTYPE" waiting="0.00" lane="E1E2_0" pos="69.18" speed="14.79" angle="0.00" x="401.60" y="176.38"/>
        <vehicle id="4" eclass="HBEFA3/PC_G_EU4" CO2="10530.78" CO="167.77" HC="1.02" NOx="4.59" PMx="0.23" fuel="3358.79" electricity="0.00" noise="72.36" route="!4" type="DEFAULT_VEHTYPE" waiting="0.00" lane="C0D0_0" pos="49.16" speed="13.09" angle="90.00" x="256.36" y="-1.60"/>
        <vehicle id="5" eclass="HBEFA3/PC_G_EU4" CO2="6444.36" CO="120.42" HC="0.70" NOx="2.77" PMx="0.13" fuel="2055.45" electricity="0.00" noise="68.11" route="!5" type="DEFAULT_VEHTYPE" waiting="0.00" lane="B1B0_0" pos="31.39" speed="8.78" angle="180.00" x="98.40" y="61.41"/>
        <vehicle id="6" eclass="HBEFA3/PC_G_EU4" CO2="5832.95" CO="115.77" HC="0.67" NOx="2.50" PMx="0.11" fuel="1860.44" electricity="0.00" noise="67.26" route="!6" type="DEFAULT_VEHTYPE" waiting="0.00" lane="A1A0_0" pos="25.09" speed="8.04" angle="180.00" x="-1.60" y="67.71"/>
        <vehicle id="7" eclass="HBEFA3/PC_G_EU4" CO2="6411.16" CO="138.66" HC="0.78" NOx="2.80" PMx="0.13" fuel="2044.86" electricity="0.00" noise="69.16" route="!7" type="DEFAULT_VEHTYPE" waiting="0.00" lane="D1C1_0" pos="19.12" speed="7.07" angle="270.00" x="273.68" y="101.60"/>
        <vehicle id="8" eclass="HBEFA3/PC_G_EU4" CO2="5599.55" CO="147.07" HC="0.80" NOx="2.47" PMx="0.12" fuel="1786.01" electricity="0.00" noise="69.38" route="!8" type="DEFAULT_VEHTYPE" waiting="0.00" lane="B1B0_0" pos="12.66" speed="5.08" angle="180.00" x="98.40" y="80.14"/>
        <vehicle id="9" eclass="HBEFA3/PC_G_EU4" CO2="3089.80" CO="147.47" HC="0.74" NOx="1.38" PMx="0.07" fuel="985.55" electricity="0.00" noise="63.49" route="!9" type="DEFAULT_VEHTYPE" waiting="0.00" lane="D4C4_0" pos="6.68" speed="1.58" angle="270.00" x="286.12" y="401.60"/>
    </timestep>
    <timestep time="11.00">
        <vehicle id="0" eclass="HBEFA3/PC_G_EU4" CO2="0.00" CO="0.00" HC="0.00" NOx="0.00" PMx="0.00" fuel="0.00" electricity="0.00" noise="55.60" route="!0" type="DEFAULT_VEHTYPE" waiting="0.00" lane="E0E1_0" pos="0.48" speed="5.39" angle="21.75" x="401.60" y="3.68"/>
        <vehicle id="1" eclass="HBEFA3/PC_G_EU4" CO2="0.00" CO="0.00" HC="0.00" NOx="0.00" PMx="0.00" fuel="0.00" electricity="0.00" noise="58.33" route="!1" type="DEFAULT_VEHTYPE" waiting="0.00" lane=":B1_1_0" pos="9.69" speed="10.09" angle="180.00" x="98.40" y="97.51"/>
        <vehicle id="11" eclass="HBEFA3/PC_G_EU4" CO2="2624.72" CO="164.78" HC="0.81" NOx="1.20" PMx="0.07" fuel="837.22" electricity="0.00" noise="55.94" route="!11" type="DEFAULT_VEHTYPE" waiting="0.00" lane="B3C3_0" pos="5.10" speed="0.00" angle="90.00" x="112.30" y="298.40"/>
        <vehicle id="2" eclass="HBEFA3/PC_G_EU4" CO2="0.00" CO="0.00" HC="0.00" NOx="0.00" PMx="0.00" fuel="0.00" electricity="0.00" noise="53.17" route="!2" type="DEFAULT_VEHTYPE" waiting="0.00" lane="D2E2_0" pos="80.64" speed="7.28" angle="90.00" x="387.84" y="198.40"/>
        <vehicle id="3" eclass="HBEFA3/PC_G_EU4" CO2="0.00" CO="0.00" HC="0.00" NOx="0.00" PMx="0.00" fuel="0.00" electricity="0.00" noise="58.45" route="!3" type="DEFAULT_VEHTYPE" waiting="0.00" lane="E1E2_0" pos="80.24" speed="11.06" angle="0.00" x="401.60" y="187.44"/>
        <vehicle id="4" eclass="HBEFA3/PC_G_EU4" CO2="2609.18" CO="4.04" HC="0.08" NOx="0.85" PMx="0.02" fuel="832.22" electricity="0.00" noise="64.31" route="!4" type="DEFAULT_VEHTYPE" waiting="0.00" lane="C0D0_0" pos="62.35" speed="13.19" angle="90.00" x="269.55" y="-1.60"/>
        <vehicle id="5" eclass="HBEFA3/PC_G_EU4" CO2="9554.53" CO="161.12" HC="0.96" NOx="4.17" PMx="0.20" fuel="3047.42" electricity="0.00" noise="71.87" route="!5" type="DEFAULT_VEHTYPE" waiting="0.00" lane="B1B0_0" pos="42.69" speed="11.29" angle="180.00" x="98.40" y="50.11"/>
        <vehicle id="6" eclass="HBEFA3/PC_G_EU4" CO2="6761.71" CO="116.40" HC="0.69" NOx="2.89" PMx="0.13" fuel="2156.66" electricity="0.00" noise="68.26" route="!6" type="DEFAULT_VEHTYPE" waiting="0.00" lane="A1A0_0" pos="34.93" speed="9.85" angle="180.00" x="-1.60" y="57.87"/>
        <vehicle id="7" eclass="HBEFA3/PC_G_EU4" CO2="7674.34" CO="139.94" HC="0.82" NOx="3.34" PMx="0.16" fuel="2447.75" electricity="0.00" noise="70.00" route="!7" type="DEFAULT_VEHTYPE" waiting="0.00" lane="D1C1_0" pos="28.47" speed="9.36" angle="270.00" x="264.33" y="101.60"/>
        <vehicle id="8" eclass="HBEFA3/PC_G_EU4" CO2="4947.77" CO="112.91" HC="0.63" NOx="2.12" PMx="0.10" fuel="1578.12" electricity="0.00" noise="65.94" route="!8" type="DEFAULT_VEHTYPE" waiting="0.00" lane="B1B0_0" pos="19.36" speed="6.70" angle="180.00" x="98.40" y="73.44"/>
        <vehicle id="9" eclass="HBEFA3/PC_G_EU4" CO2="4684.96" CO="143.81" HC="0.77" NOx="2.07" PMx="0.10" fuel="1494.31" electricity="0.00" noise="67.96" route="!9" type="DEFAULT_VEHTYPE" waiting="0.00" lane="D4C4_0" pos="10.64" speed="3.96" angle="270.00" x="282.16" y="401.60"/>
    </timestep>
    <timestep time="12.00">
        <vehicle id="0" eclass="HBEFA3/PC_G_EU4" CO2="5753.89" CO="122.28" HC="0.69" NOx="2.48" PMx="0.12" fuel="1835.23" electricity="0.00" noise="67.47" route="!0" type="DEFAULT_VEHTYPE" waiting="0.00" lane="E0E1_0" pos="7.79" speed="7.31" angle="0.00" x="401.60" y="10.99"/>
        <vehicle id="1" eclass="HBEFA3/PC_G_EU4" CO2="1839.99" CO="13.75" HC="0.10" NOx="0.57" PMx="0.01" fuel="586.89" electricity="0.00" noise="61.46" route="!1" type="DEFAULT_VEHTYPE" waiting="0.00" lane="B1B0_0" pos="5.28" speed="9.99" angle="180.00" x="98.40" y="87.52"/>
        <vehicle id="10" eclass="HBEFA3/PC_G_EU4" CO2="2624.72" CO="164.78" HC="0.81" NOx="1.20" PMx="0.07" fuel="837.22" electricity="0.00" noise="55.94" route="!10" type="DEFAULT_VEHTYPE" waiting="0.00" lane="D4C4_0" pos="5.10" speed="0.00" angle="270.00" x="287.70" y="401.60"/>
        <vehicle id="11" eclass="HBEFA3/PC_G_EU4" CO2="3690.03" CO="149.09" HC="0.77" NOx="1.65" PMx="0.08" fuel="1176.99" electricity="0.00" noise="66.70" route="!11" type="DEFAULT_VEHTYPE" waiting="0.00" lane="B3C3_0" pos="7.35" speed="2.25" angle="90.00" x="114.55" y="298.40"/>
        <vehicle id="12" eclass="HBEFA3/PC_G_EU4" CO2="2624.72" CO="164.78" HC="0.81" NOx="1.20" PMx="0.07" fuel="837.22" electricity="0.00" noise="55.94" route="!12" type="DEFAULT_VEHTYPE" waiting="0.00" lane="E3E2_0" pos="5.10" speed="0.00" angle="180.00" x="398.40" y="287.70"/>
        <vehicle id="2" eclass="HBEFA3/PC_G_EU4" CO2="0.00" CO="0.00" HC="0.00" NOx="0.00" PMx="0.00" fuel="0.00" electricity="0.00" noise="48.67" route="!2" type="DEFAULT_VEHTYPE" waiting="0.00" lane="D2E2_0" pos="84.97" speed="4.33" angle="90.00" x="392.17" y="198.40"/>
        <vehicle id="3" eclass="HBEFA3/PC_G_EU4" CO2="0.00" CO="0.00" HC="0.00" NOx="0.00" PMx="0.00" fuel="0.00" electricity="0.00" noise="51.77" route="!3" type="DEFAULT_VEHTYPE" waiting="0.00" lane=":E2_4_0" pos="1.20" speed="6.56" angle="358.06" x="401.43" y="193.98"/>
        <vehicle id="4" eclass="HBEFA3/PC_G_EU4" CO2="0.00" CO="0.00" HC="0.00" NOx="0.00" PMx="0.00" fuel="0.00" electricity="0.00" noise="59.78" route="!4" type="DEFAULT_VEHTYPE" waiting="0.00" lane="C0D0_0" pos="73.80" speed="11.45" angle="90.00" x="281.00" y="-1.60"/>
        <vehicle id="5" eclass="HBEFA3/PC_G_EU4" CO2="1615.04" CO="0.00" HC="0.03" NOx="0.43" PMx="0.00" fuel="515.15" electricity="0.00" noise="62.09" route="!5" type="DEFAULT_VEHTYPE" waiting="0.00" lane="B1B0_0" pos="53.79" speed="11.11" angle="180.00" x="98.40" y="39.01"/>
        <vehicle id="6" eclass="HBEFA3/PC_G_EU4" CO2="7989.07" CO="125.26" HC="0.76" NOx="3.42" PMx="0.16" fuel="2548.12" electricity="0.00" noise="69.56" route="!6" type="DEFAULT_VEHTYPE" waiting="0.00" lane="A1A0_0" pos="46.68" speed="11.74" angle="180.00" x="-1.60" y="46.12"/>
        <vehicle id="7" eclass="HBEFA3/PC_G_EU4" CO2="9285.44" CO="152.39" HC="0.92" NOx="4.04" PMx="0.20" fuel="2961.60" electricity="0.00" noise="71.31" route="!7" type="DEFAULT_VEHTYPE" waiting="0.00" lane="D1C1_0" pos="40.16" speed="11.69" angle="270.00" x="252.64" y="101.60"/>
        <vehicle id="8" eclass="HBEFA3/PC_G_EU4" CO2="6449.43" CO="122.01" HC="0.71" NOx="2.78" PMx="0.13" fuel="2057.06" electricity="0.00" noise="68.18" route="!8" type="DEFAULT_VEHTYPE" waiting="0.00" lane="B1B0_0" pos="28.00" speed="8.64" angle="180.00" x="98.40" y="64.80"/>
        <vehicle id="9" eclass="HBEFA3/PC_G_EU4" CO2="4485.23" CO="117.62" HC="0.64" NOx="1.93" PMx="0.09" fuel="1430.60" electricity="0.00" noise="65.35" route="!9" type="DEFAULT_VEHTYPE" waiting="0.00" lane="D4C4_0" pos="16.20" speed="5.57" angle="270.00" x="276.60" y="401.60"/>
    </timestep>
    <timestep time="13.00">
        <vehicle id="0" eclass="HBEFA3/PC_G_EU4" CO2="6149.44" CO="111.75" HC="0.65" NOx="2.63" PMx="0.12" fuel="1961.38" electricity="0.00" noise="67.49" route="!0" type="DEFAULT_VEHTYPE" waiting="0.00" lane="E0E1_0" pos="16.83" speed="9.04" angle="0.00" x="401.60" y="20.03"/>
        <vehicle id="1" eclass="HBEFA3/PC_G_EU4" CO2="1877.82" CO="15.37" HC="0.11" NOx="0.59" PMx="0.01" fuel="598.96" electricity="0.00" noise="61.44" route="!1" type="DEFAULT_VEHTYPE" waiting="0.00" lane="B1B0_0" pos="15.18" speed="9.90" angle="180.00" x="98.40" y="77.62"/>
        <vehicle id="10" eclass="HBEFA3/PC_G_EU4" CO2="3651.27" CO="148.86" HC="0.76" NOx="1.63" PMx="0.08" fuel="1164.62" electricity="0.00" noise="66.52" route="!10" type="DEFAULT_VEHTYPE" waiting="0.00" lane="D4C4_0" pos="7.31" speed="2.21" angle="270.00" x="285.49" y="401.60"/>
        <vehicle id="11" eclass="HBEFA3/PC_G_EU4" CO2="5235.60" CO="144.36" HC="0.78" NOx="2.31" PMx="0.11" fuel="1669.93" electricity="0.00" noise="68.72" route="!11" type="DEFAULT_VEHTYPE" waiting="0.00" lane="B3C3_0" pos="12.07" speed="4.72" angle="90.00" x="119.27" y="298.40"/>
        <vehicle id="12" eclass="HBEFA3/PC_G_EU4" CO2="3432.54" CO="147.84" HC="0.75" NOx="1.53" PMx="0.08" fuel="1094.86" electricity="0.00" noise="65.47" route="!12" type="DEFAULT_VEHTYPE" waiting="0.00" lane="E3E2_0" pos="7.09" speed="1.99" angle="180.00" x="398.40" y="285.71"/>
        <vehicle id="13" eclass="HBEFA3/PC_G_EU4" CO2="2624.72" CO="164.78" HC="0.81" NOx="1.20" PMx="0.07" fuel="837.22" electricity="0.00" noise="55.94" route="!13" type="DEFAULT_VEHTYPE" waiting="0.00" lane="A2B2_0" pos="5.10" speed="0.00" angle="90.00" x="12.30" y="198.40"/>
        <vehicle id="2" eclass="HBEFA3/PC_G_EU4" CO2="3776.29" CO="104.24" HC="0.56" NOx="1.60" PMx="0.07" fuel="1204.49" electricity="0.00" noise="63.29" route="!2" type="DEFAULT_VEHTYPE" waiting="0.00" lane=":E2_6_0" pos="4.85" speed="5.47" angle="110.41" x="397.17" y="196.72"/>
        <vehicle id="3" eclass="HBEFA3/PC_G_EU4" CO2="5141.85" CO="101.71" HC="0.58" NOx="2.18" PMx="0.10" fuel="1640.02" electricity="0.00" noise="65.90" route="!3" type="DEFAULT_VEHTYPE" waiting="0.00" lane=":E2_10_0" pos="5.15" speed="8.02" angle="317.20" x="397.59" y="200.49"/>
        <vehicle id="4" eclass="HBEFA3/PC_G_EU4" CO2="0.00" CO="0.00" HC="0.00" NOx="0.00" PMx="0.00" fuel="0.00" electricity="0.00" noise="53.79" route="!4" type="DEFAULT_VEHTYPE" waiting="0.00" lane="C0D0_0" pos="81.44" speed="7.64" angle="90.00" x="288.64" y="-1.60"/>
        <vehicle id="5" eclass="HBEFA3/PC_G_EU4" CO2="2908.89" CO="23.75" HC="0.17" NOx="1.04" PMx="0.03" fuel="927.81" electricity="0.00" noise="63.47" route="!5" type="DEFAULT_VEHTYPE" waiting="0.00" lane="B1B0_0" pos="65.15" speed="11.36" angle="180.00" x="98.40" y="27.65"/>
        <vehicle id="6" eclass="HBEFA3/PC_G_EU4" CO2="11651.39" CO="183.62" HC="1.12" NOx="5.09" PMx="0.25" fuel="3716.21" electricity="0.00" noise="73.25" route="!6" type="DEFAULT_VEHTYPE" waiting="0.00" lane="A1A0_0" pos="60.92" speed="14.24" angle="180.00" x="-1.60" y="31.88"/>
        <vehicle id="7" eclass="HBEFA3/PC_G_EU4" CO2="1671.12" CO="0.00" HC="0.02" NOx="0.45" PMx="0.00" fuel="533.03" electricity="0.00" noise="62.45" route="!7" type="DEFAULT_VEHTYPE" waiting="0.00" lane="D1C1_0" pos="51.68" speed="11.52" angle="270.00" x="241.12" y="101.60"/>