<?xml version="1.0" encoding="UTF-8"?>

<!-- generated on 2024-01-30 17:56:45 by Eclipse SUMO GUI Version 1.19.0
<configuration xmlns:xsi="http://www.w3.org/2001/XMLSchema-instance" xsi:noNamespaceSchemaLocation="http://sumo.dlr.de/xsd/sumoConfiguration.xsd">

    <input>
        <net-file value="C:\Users\nicka\School\Capstone\Sumo\config\network.net.xml"/>
        <route-files value="C:\Users\nicka\School\Capstone\Sumo\config\routes.rou.xml"/>
    </input>

    <output>
        <emission-output value="C:/Users/nicka/School/Capstone/Sumo/RawOutputs/emission_rawOut.xml"/>
        <fcd-output value="C:/Users/nicka/School/Capstone/Sumo/RawOutputs/fcd-output_rawOut.xml"/>
        <tripinfo-output value="C:/Users/nicka/School/Capstone/Sumo/RawOutputs/tripinfo_rawOut.xml"/>
    </output>

    <time>
        <begin value="0"/>
        <end value="3600"/>
    </time>

</configuration>
-->

<fcd-export xmlns:xsi="http://www.w3.org/2001/XMLSchema-instance" xsi:noNamespaceSchemaLocation="http://sumo.dlr.de/xsd/fcd_file.xsd">
    <timestep time="0.00">
        <vehicle id="0" x="312.30" y="-1.60" angle="90.00" type="DEFAULT_VEHTYPE" speed="0.00" pos="5.10" lane="D0E0_0" slope="0.00"/>
    </timestep>
    <timestep time="1.00">
        <vehicle id="0" x="314.82" y="-1.60" angle="90.00" type="DEFAULT_VEHTYPE" speed="2.52" pos="7.62" lane="D0E0_0" slope="0.00"/>
        <vehicle id="1" x="98.40" y="187.70" angle="180.00" type="DEFAULT_VEHTYPE" speed="0.00" pos="5.10" lane="B2B1_0" slope="0.00"/>
    </timestep>
    <timestep time="2.00">
        <vehicle id="0" x="318.97" y="-1.60" angle="90.00" type="DEFAULT_VEHTYPE" speed="4.15" pos="11.77" lane="D0E0_0" slope="0.00"/>
        <vehicle id="1" x="98.40" y="185.49" angle="180.00" type="DEFAULT_VEHTYPE" speed="2.21" pos="7.31" lane="B2B1_0" slope="0.00"/>
        <vehicle id="2" x="312.30" y="198.40" angle="90.00" type="DEFAULT_VEHTYPE" speed="0.00" pos="5.10" lane="D2E2_0" slope="0.00"/>
    </timestep>
    <timestep time="3.00">
        <vehicle id="0" x="324.67" y="-1.60" angle="90.00" type="DEFAULT_VEHTYPE" speed="5.70" pos="17.47" lane="D0E0_0" slope="0.00"/>
        <vehicle id="1" x="98.40" y="180.99" angle="180.00" type="DEFAULT_VEHTYPE" speed="4.51" pos="11.81" lane="B2B1_0" slope="0.00"/>
        <vehicle id="2" x="314.38" y="198.40" angle="90.00" type="DEFAULT_VEHTYPE" speed="2.08" pos="7.18" lane="D2E2_0" slope="0.00"/>
        <vehicle id="3" x="401.60" y="112.30" angle="0.00" type="DEFAULT_VEHTYPE" speed="0.00" pos="5.10" lane="E1E2_0" slope="0.00"/>
    </timestep>
    <timestep time="4.00">
        <vehicle id="0" x="332.90" y="-1.60" angle="90.00" type="DEFAULT_VEHTYPE" speed="8.23" pos="25.70" lane="D0E0_0" slope="0.00"/>
        <vehicle id="1" x="98.40" y="174.08" angle="180.00" type="DEFAULT_VEHTYPE" speed="6.90" pos="18.72" lane="B2B1_0" slope="0.00"/>
        <vehicle id="2" x="319.04" y="198.40" angle="90.00" type="DEFAULT_VEHTYPE" speed="4.66" pos="11.84" lane="D2E2_0" slope="0.00"/>
        <vehicle id="3" x="401.60" y="114.85" angle="0.00" type="DEFAULT_VEHTYPE" speed="2.55" pos="7.65" lane="E1E2_0" slope="0.00"/>
        <vehicle id="4" x="212.30" y="-1.60" angle="90.00" type="DEFAULT_VEHTYPE" speed="0.00" pos="5.10" lane="C0D0_0" slope="0.00"/>
    </timestep>
    <timestep time="5.00">
        <vehicle id="0" x="342.74" y="-1.60" angle="90.00" type="DEFAULT_VEHTYPE" speed="9.84" pos="35.54" lane="D0E0_0" slope="0.00"/>
        <vehicle id="1" x="98.40" y="165.49" angle="180.00" type="DEFAULT_VEHTYPE" speed="8.59" pos="27.31" lane="B2B1_0" slope="0.00"/>
        <vehicle id="2" x="325.06" y="198.40" angle="90.00" type="DEFAULT_VEHTYPE" speed="6.02" pos="17.86" lane="D2E2_0" slope="0.00"/>
        <vehicle id="3" x="401.60" y="119.93" angle="0.00" type="DEFAULT_VEHTYPE" speed="5.08" pos="12.73" lane="E1E2_0" slope="0.00"/>
        <vehicle id="4" x="213.73" y="-1.60" angle="90.00" type="DEFAULT_VEHTYPE" speed="1.43" pos="6.53" lane="C0D0_0" slope="0.00"/>
        <vehicle id="5" x="98.40" y="87.70" angle="180.00" type="DEFAULT_VEHTYPE" speed="0.00" pos="5.10" lane="B1B0_0" slope="0.00"/>
    </timestep>
    <timestep time="6.00">
        <vehicle id="0" x="354.46" y="-1.60" angle="90.00" type="DEFAULT_VEHTYPE" speed="11.72" pos="47.26" lane="D0E0_0" slope="0.00"/>
        <vehicle id="1" x="98.40" y="155.19" angle="180.00" type="DEFAULT_VEHTYPE" speed="10.31" pos="37.61" lane="B2B1_0" slope="0.00"/>
        <vehicle id="2" x="333.28" y="198.40" angle="90.00" type="DEFAULT_VEHTYPE" speed="8.22" pos="26.08" lane="D2E2_0" slope="0.00"/>
        <vehicle id="3" x="401.60" y="127.01" angle="0.00" type="DEFAULT_VEHTYPE" speed="7.07" pos="19.81" lane="E1E2_0" slope="0.00"/>
        <vehicle id="4" x="217.77" y="-1.60" angle="90.00" type="DEFAULT_VEHTYPE" speed="4.03" pos="10.57" lane="C0D0_0" slope="0.00"/>
        <vehicle id="5" x="98.40" y="86.03" angle="180.00" type="DEFAULT_VEHTYPE" speed="1.67" pos="6.77" lane="B1B0_0" slope="0.00"/>
        <vehicle id="6" x="-1.60" y="87.70" angle="180.00" type="DEFAULT_VEHTYPE" speed="0.00" pos="5.10" lane="A1A0_0" slope="0.00"/>
    </timestep>
    <timestep time="7.00">
        <vehicle id="0" x="368.04" y="-1.60" angle="90.00" type="DEFAULT_VEHTYPE" speed="13.59" pos="60.84" lane="D0E0_0" slope="0.00"/>
        <vehicle id="1" x="98.40" y="143.14" angle="180.00" type="DEFAULT_VEHTYPE" speed="12.05" pos="49.66" lane="B2B1_0" slope="0.00"/>
        <vehicle id="2" x="343.77" y="198.40" angle="90.00" type="DEFAULT_VEHTYPE" speed="10.49" pos="36.57" lane="D2E2_0" slope="0.00"/>
        <vehicle id="3" x="401.60" y="136.26" angle="0.00" type="DEFAULT_VEHTYPE" speed="9.25" pos="29.06" lane="E1E2_0" slope="0.00"/>
        <vehicle id="4" x="223.97" y="-1.60" angle="90.00" type="DEFAULT_VEHTYPE" speed="6.21" pos="16.77" lane="C0D0_0" slope="0.00"/>
        <vehicle id="5" x="98.40" y="82.48" angle="180.00" type="DEFAULT_VEHTYPE" speed="3.56" pos="10.32" lane="B1B0_0" slope="0.00"/>
        <vehicle id="6" x="-1.60" y="85.82" angle="180.00" type="DEFAULT_VEHTYPE" speed="1.88" pos="6.98" lane="A1A0_0" slope="0.00"/>
        <vehicle id="7" x="287.70" y="101.60" angle="270.00" type="DEFAULT_VEHTYPE" speed="0.00" pos="5.10" lane="D1C1_0" slope="0.00"/>
    </timestep>
    <timestep time="8.00">
        <vehicle id="0" x="382.71" y="-1.60" angle="90.00" type="DEFAULT_VEHTYPE" speed="14.66" pos="75.51" lane="D0E0_0" slope="0.00"/>
        <vehicle id="1" x="98.40" y="130.71" angle="180.00" type="DEFAULT_VEHTYPE" speed="12.43" pos="62.09" lane="B2B1_0" slope="0.00"/>
        <vehicle id="2" x="355.91" y="198.40" angle="90.00" type="DEFAULT_VEHTYPE" speed="12.14" pos="48.71" lane="D2E2_0" slope="0.00"/>
        <vehicle id="3" x="401.60" y="147.92" angle="0.00" type="DEFAULT_VEHTYPE" speed="11.66" pos="40.72" lane="E1E2_0" slope="0.00"/>
        <vehicle id="4" x="232.61" y="-1.60" angle="90.00" type="DEFAULT_VEHTYPE" speed="8.63" pos="25.41" lane="C0D0_0" slope="0.00"/>
        <vehicle id="5" x="98.40" y="77.07" angle="180.00" type="DEFAULT_VEHTYPE" speed="5.41" pos="15.73" lane="B1B0_0" slope="0.00"/>
        <vehicle id="6" x="-1.60" y="82.00" angle="180.00" type="DEFAULT_VEHTYPE" speed="3.82" pos="10.80" lane="A1A0_0" slope="0.00"/>
        <vehicle id="7" x="285.48" y="101.60" angle="270.00" type="DEFAULT_VEHTYPE" speed="2.22" pos="7.32" lane="D1C1_0" slope="0.00"/>
        <vehicle id="8" x="98.40" y="87.70" angle="180.00" type="DEFAULT_VEHTYPE" speed="0.00" pos="5.10" lane="B1B0_0" slope="0.00"/>
    </timestep>
    <timestep time="9.00">
        <vehicle id="0" x="393.42" y="-1.60" angle="90.00" type="DEFAULT_VEHTYPE" speed="10.71" pos="86.22" lane="D0E0_0" slope="0.00"/>
        <vehicle id="1" x="98.40" y="119.46" angle="180.00" type="DEFAULT_VEHTYPE" speed="11.25" pos="73.34" lane="B2B1_0" slope="0.00"/>
        <vehicle id="2" x="369.38" y="198.40" angle="90.00" type="DEFAULT_VEHTYPE" speed="13.47" pos="62.18" lane="D2E2_0" slope="0.00"/>
        <vehicle id="3" x="401.60" y="161.58" angle="0.00" type="DEFAULT_VEHTYPE" speed="13.66" pos="54.38" lane="E1E2_0" slope="0.00"/>
        <vehicle id="4" x="243.27" y="-1.60" angle="90.00" type="DEFAULT_VEHTYPE" speed="10.67" pos="36.07" lane="C0D0_0" slope="0.00"/>
        <vehicle id="5" x="98.40" y="70.19" angle="180.00" type="DEFAULT_VEHTYPE" speed="6.88" pos="22.61" lane="B1B0_0" slope="0.00"/>
        <vehicle id="6" x="-1.60" y="75.75" angle="180.00" type="DEFAULT_VEHTYPE" speed="6.25" pos="17.05" lane="A1A0_0" slope="0.00"/>
        <vehicle id="7" x="280.75" y="101.60" angle="270.00" type="DEFAULT_VEHTYPE" speed="4.73" pos="12.05" lane="D1C1_0" slope="0.00"/>
        <vehicle id="8" x="98.40" y="85.22" angle="180.00" type="DEFAULT_VEHTYPE" speed="2.48" pos="7.58" lane="B1B0_0" slope="0.00"/>
        <vehicle id="9" x="287.70" y="401.60" angle="270.00" type="DEFAULT_VEHTYPE" speed="0.00" pos="5.10" lane="D4C4_0" slope="0.00"/>
    </timestep>
    <timestep time="10.00">
        <vehicle id="0" x="399.50" y="-0.94" angle="82.29" type="DEFAULT_VEHTYPE" speed="6.21" pos="2.82" lane=":E0_1_0" slope="0.00"/>
        <vehicle id="1" x="98.40" y="107.61" angle="180.00" type="DEFAULT_VEHTYPE" speed="11.85" pos="85.19" lane="B2B1_0" slope="0.00"/>
        <vehicle id="2" x="380.56" y="198.40" angle="90.00" type="DEFAULT_VEHTYPE" speed="11.18" pos="73.36" lane="D2E2_0" slope="0.00"/>
        <vehicle id="3" x="401.60" y="176.38" angle="0.00" type="DEFAULT_VEHTYPE" speed="14.79" pos="69.18" lane="E1E2_0" slope="0.00"/>
        <vehicle id="4" x="256.36" y="-1.60" angle="90.00" type="DEFAULT_VEHTYPE" speed="13.09" pos="49.16" lane="C0D0_0" slope="0.00"/>
        <vehicle id="5" x="98.40" y="61.41" angle="180.00" type="DEFAULT_VEHTYPE" speed="8.78" pos="31.39" lane="B1B0_0" slope="0.00"/>
        <vehicle id="6" x="-1.60" y="67.71" angle="180.00" type="DEFAULT_VEHTYPE" speed="8.04" pos="25.09" lane="A1A0_0" slope="0.00"/>
        <vehicle id="7" x="273.68" y="101.60" angle="270.00" type="DEFAULT_VEHTYPE" speed="7.07" pos="19.12" lane="D1C1_0" slope="0.00"/>
        <vehicle id="8" x="98.40" y="80.14" angle="180.00" type="DEFAULT_VEHTYPE" speed="5.08" pos="12.66" lane="B1B0_0" slope="0.00"/>
        <vehicle id="9" x="286.12" y="401.60" angle="270.00" type="DEFAULT_VEHTYPE" speed="1.58" pos="6.68" lane="D4C4_0" slope="0.00"/>
    </timestep>
    <timestep time="11.00">
        <vehicle id="0" x="401.60" y="3.68" angle="21.75" type="DEFAULT_VEHTYPE" speed="5.39" pos="0.48" lane="E0E1_0" slope="0.00"/>
        <vehicle id="1" x="98.40" y="97.51" angle="180.00" type="DEFAULT_VEHTYPE" speed="10.09" pos="9.69" lane=":B1_1_0" slope="0.00"/>
        <vehicle id="11" x="112.30" y="298.40" angle="90.00" type="DEFAULT_VEHTYPE" speed="0.00" pos="5.10" lane="B3C3_0" slope="0.00"/>
        <vehicle id="2" x="387.84" y="198.40" angle="90.00" type="DEFAULT_VEHTYPE" speed="7.28" pos="80.64" lane="D2E2_0" slope="0.00"/>
        <vehicle id="3" x="401.60" y="187.44" angle="0.00" type="DEFAULT_VEHTYPE" speed="11.06" pos="80.24" lane="E1E2_0" slope="0.00"/>
        <vehicle id="4" x="269.55" y="-1.60" angle="90.00" type="DEFAULT_VEHTYPE" speed="13.19" pos="62.35" lane="C0D0_0" slope="0.00"/>
        <vehicle id="5" x="98.40" y="50.11" angle="180.00" type="DEFAULT_VEHTYPE" speed="11.29" pos="42.69" lane="B1B0_0" slope="0.00"/>
        <vehicle id="6" x="-1.60" y="57.87" angle="180.00" type="DEFAULT_VEHTYPE" speed="9.85" pos="34.93" lane="A1A0_0" slope="0.00"/>
        <vehicle id="7" x="264.33" y="101.60" angle="270.00" type="DEFAULT_VEHTYPE" speed="9.36" pos="28.47" lane="D1C1_0" slope="0.00"/>
        <vehicle id="8" x="98.40" y="73.44" angle="180.00" type="DEFAULT_VEHTYPE" speed="6.70" pos="19.36" lane="B1B0_0" slope="0.00"/>
        <vehicle id="9" x="282.16" y="401.60" angle="270.00" type="DEFAULT_VEHTYPE" speed="3.96" pos="10.64" lane="D4C4_0" slope="0.00"/>
    </timestep>
    <timestep time="12.00">
        <vehicle id="0" x="401.60" y="10.99" angle="0.00" type="DEFAULT_VEHTYPE" speed="7.31" pos="7.79" lane="E0E1_0" slope="0.00"/>
        <vehicle id="1" x="98.40" y="87.52" angle="180.00" type="DEFAULT_VEHTYPE" speed="9.99" pos="5.28" lane="B1B0_0" slope="0.00"/>
        <vehicle id="10" x="287.70" y="401.60" angle="270.00" type="DEFAULT_VEHTYPE" speed="0.00" pos="5.10" lane="D4C4_0" slope="0.00"/>
        <vehicle id="11" x="114.55" y="298.40" angle="90.00" type="DEFAULT_VEHTYPE" speed="2.25" pos="7.35" lane="B3C3_0" slope="0.00"/>
        <vehicle id="12" x="398.40" y="287.70" angle="180.00" type="DEFAULT_VEHTYPE" speed="0.00" pos="5.10" lane="E3E2_0" slope="0.00"/>
        <vehicle id="2" x="392.17" y="198.40" angle="90.00" type="DEFAULT_VEHTYPE" speed="4.33" pos="84.97" lane="D2E2_0" slope="0.00"/>
        <vehicle id="3" x="401.43" y="193.98" angle="358.06" type="DEFAULT_VEHTYPE" speed="6.56" pos="1.20" lane=":E2_4_0" slope="0.00"/>
        <vehicle id="4" x="281.00" y="-1.60" angle="90.00" type="DEFAULT_VEHTYPE" speed="11.45" pos="73.80" lane="C0D0_0" slope="0.00"/>
        <vehicle id="5" x="98.40" y="39.01" angle="180.00" type="DEFAULT_VEHTYPE" speed="11.11" pos="53.79" lane="B1B0_0" slope="0.00"/>
        <vehicle id="6" x="-1.60" y="46.12" angle="180.00" type="DEFAULT_VEHTYPE" speed="11.74" pos="46.68" lane="A1A0_0" slope="0.00"/>
        <vehicle id="7" x="252.64" y="101.60" angle="270.00" type="DEFAULT_VEHTYPE" speed="11.69" pos="40.16" lane="D1C1_0" slope="0.00"/>
        <vehicle id="8" x="98.40" y="64.80" angle="180.00" type="DEFAULT_VEHTYPE" speed="8.64" pos="28.00" lane="B1B0_0" slope="0.00"/>
        <vehicle id="9" x="276.60" y="401.60" angle="270.00" type="DEFAULT_VEHTYPE" speed="5.57" pos="16.20" lane="D4C4_0" slope="0.00"/>
    </timestep>
    <timestep time="13.00">
        <vehicle id="0" x="401.60" y="20.03" angle="0.00" type="DEFAULT_VEHTYPE" speed="9.04" pos="16.83" lane="E0E1_0" slope="0.00"/>
        <vehicle id="1" x="98.40" y="77.62" angle="180.00" type="DEFAULT_VEHTYPE" speed="9.90" pos="15.18" lane="B1B0_0" slope="0.00"/>
        <vehicle id="10" x="285.49" y="401.60" angle="270.00" type="DEFAULT_VEHTYPE" speed="2.21" pos="7.31" lane="D4C4_0" slope="0.00"/>
        <vehicle id="11" x="119.27" y="298.40" angle="90.00" type="DEFAULT_VEHTYPE" speed="4.72" pos="12.07" lane="B3C3_0" slope="0.00"/>
        <vehicle id="12" x="398.40" y="285.71" angle="180.00" type="DEFAULT_VEHTYPE" speed="1.99" pos="7.09" lane="E3E2_0" slope="0.00"/>
        <vehicle id="13" x="12.30" y="198.40" angle="90.00" type="DEFAULT_VEHTYPE" speed="0.00" pos="5.10" lane="A2B2_0" slope="0.00"/>
        <vehicle id="2" x="397.17" y="196.72" angle="110.41" type="DEFAULT_VEHTYPE" speed="5.47" pos="4.85" lane=":E2_6_0" slope="0.00"/>
        <vehicle id="3" x="397.59" y="200.49" angle="317.20" type="DEFAULT_VEHTYPE" speed="8.02" pos="5.15" lane=":E2_10_0" slope="0.00"/>
        <vehicle id="4" x="288.64" y="-1.60" angle="90.00" type="DEFAULT_VEHTYPE" speed="7.64" pos="81.44" lane="C0D0_0" slope="0.00"/>
        <vehicle id="5" x="98.40" y="27.65" angle="180.00" type="DEFAULT_VEHTYPE" speed="11.36" pos="65.15" lane="B1B0_0" slope="0.00"/>
        <vehicle id="6" x="-1.60" y="31.88" angle="180.00" type="DEFAULT_VEHTYPE" speed="14.24" pos="60.92" lane="A1A0_0" slope="0.00"/>
        <vehicle id="7" x="241.12" y="101.60" angle="270.00" type="DEFAULT_VEHTYPE" speed="11.52" pos="51.68" lane="D1C1_0" slope="0.00"/>
        <vehicle id="8" x="98.40" y="54.66" angle="180.00" type="DEFAULT_VEHTYPE" speed="10.14" pos="38.14" lane="B1B0_0" slope="0.00"/>
        <vehicle id="9" x="268.78" y="401.60" angle="270.00" type="DEFAULT_VEHTYPE" speed="7.82" pos="24.02" lane="D4C4_0" slope="0.00"/>
    </timestep>
    <timestep time="14.00">
        <vehicle id="0" x="401.60" y="31.06" angle="0.00" type="DEFAULT_VEHTYPE" speed="11.04" pos="27.86" lane="E0E1_0" slope="0.00"/>
        <vehicle id="1" x="98.40" y="66.26" angle="180.00" type="DEFAULT_VEHTYPE" speed="11.37" pos="26.54" lane="B1B0_0" slope="0.00"/>
        <vehicle id="10" x="281.72" y="401.60" angle="270.00" type="DEFAULT_VEHTYPE" speed="3.77" pos="11.08" lane="D4C4_0" slope="0.00"/>
        <vehicle id="11" x="125.33" y="298.40" angle="90.00" type="DEFAULT_VEHTYPE" speed="6.06" pos="18.13" lane="B3C3_0" slope="0.00"/>
        <vehicle id="12" x="398.40" y="281.87" angle="180.00" type="DEFAULT_VEHTYPE" speed="3.84" pos="10.93" lane="E3E2_0" slope="0.00"/>
        <vehicle id="13" x="14.54" y="198.40" angle="90.00" type="DEFAULT_VEHTYPE" speed="2.24" pos="7.34" lane="A2B2_0" slope="0.00"/>
        <vehicle id="14" x="391.70" y="1.60" angle="270.00" type="DEFAULT_VEHTYPE" speed="0.00" pos="5.10" lane="E0D0_0" slope="0.00"/>
        <vehicle id="2" x="398.40" y="191.65" angle="167.51" type="DEFAULT_VEHTYPE" speed="5.33" pos="1.15" lane="E2E1_0" slope="0.00"/>
        <vehicle id="3" x="390.34" y="201.60" angle="274.13" type="DEFAULT_VEHTYPE" speed="7.44" pos="2.46" lane="E2D2_0" slope="0.00"/>
        <vehicle id="4" x="291.78" y="-1.60" angle="90.00" type="DEFAULT_VEHTYPE" speed="3.14" pos="84.58" lane="C0D0_0" slope="0.00"/>
        <vehicle id="5" x="98.40" y="16.55" angle="180.00" type="DEFAULT_VEHTYPE" speed="11.10" pos="76.25" lane="B1B0_0" slope="0.00"/>
        <vehicle id="6" x="-1.60" y="18.64" angle="180.00" type="DEFAULT_VEHTYPE" speed="13.24" pos="74.16" lane="A1A0_0" slope="0.00"/>
        <vehicle id="7" x="230.05" y="101.60" angle="270.00" type="DEFAULT_VEHTYPE" speed="11.07" pos="62.75" lane="D1C1_0" slope="0.00"/>
        <vehicle id="8" x="98.40" y="43.17" angle="180.00" type="DEFAULT_VEHTYPE" speed="11.49" pos="49.63" lane="B1B0_0" slope="0.00"/>
        <vehicle id="9" x="258.82" y="401.60" angle="270.00" type="DEFAULT_VEHTYPE" speed="9.96" pos="33.98" lane="D4C4_0" slope="0.00"/>
    </timestep>
    <timestep time="15.00">
        <vehicle id="0" x="401.60" y="44.54" angle="0.00" type="DEFAULT_VEHTYPE" speed="13.48" pos="41.34" lane="E0E1_0" slope="0.00"/>
        <vehicle id="1" x="98.40" y="53.48" angle="180.00" type="DEFAULT_VEHTYPE" speed="12.77" pos="39.32" lane="B1B0_0" slope="0.00"/>
        <vehicle id="10" x="276.62" y="401.60" angle="270.00" type="DEFAULT_VEHTYPE" speed="5.09" pos="16.18" lane="D4C4_0" slope="0.00"/>
        <vehicle id="11" x="132.81" y="298.40" angle="90.00" type="DEFAULT_VEHTYPE" speed="7.48" pos="25.61" lane="B3C3_0" slope="0.00"/>
        <vehicle id="12" x="398.40" y="275.47" angle="180.00" type="DEFAULT_VEHTYPE" speed="6.39" pos="17.33" lane="E3E2_0" slope="0.00"/>
        <vehicle id="13" x="18.97" y="198.40" angle="90.00" type="DEFAULT_VEHTYPE" speed="4.44" pos="11.77" lane="A2B2_0" slope="0.00"/>
        <vehicle id="14" x="389.23" y="1.60" angle="270.00" type="DEFAULT_VEHTYPE" speed="2.47" pos="7.57" lane="E0D0_0" slope="0.00"/>
        <vehicle id="15" x="287.70" y="401.60" angle="270.00" type="DEFAULT_VEHTYPE" speed="0.00" pos="5.10" lane="D4C4_0" slope="0.00"/>
        <vehicle id="2" x="398.40" y="185.00" angle="180.00" type="DEFAULT_VEHTYPE" speed="6.65" pos="7.80" lane="E2E1_0" slope="0.00"/>
        <vehicle id="3" x="381.11" y="201.60" angle="270.00" type="DEFAULT_VEHTYPE" speed="9.23" pos="11.69" lane="E2D2_0" slope="0.00"/>
        <vehicle id="4" x="294.29" y="0.21" angle="65.20" type="DEFAULT_VEHTYPE" speed="3.59" pos="1.13" lane=":D0_11_0" slope="0.00"/>
        <vehicle id="5" x="98.40" y="9.71" angle="180.00" type="DEFAULT_VEHTYPE" speed="6.83" pos="83.09" lane="B1B0_0" slope="0.00"/>
        <vehicle id="6" x="-1.60" y="8.25" angle="180.00" type="DEFAULT_VEHTYPE" speed="10.38" pos="84.55" lane="A1A0_0" slope="0.00"/>
        <vehicle id="7" x="218.83" y="101.60" angle="270.00" type="DEFAULT_VEHTYPE" speed="11.23" pos="73.97" lane="D1C1_0" slope="0.00"/>
        <vehicle id="8" x="98.40" y="30.38" angle="180.00" type="DEFAULT_VEHTYPE" speed="12.79" pos="62.42" lane="B1B0_0" slope="0.00"/>
        <vehicle id="9" x="247.80" y="401.60" angle="270.00" type="DEFAULT_VEHTYPE" speed="11.01" pos="45.00" lane="D4C4_0" slope="0.00"/>
    </timestep>
    <timestep time="16.00">
        <vehicle id="0" x="401.60" y="58.87" angle="0.00" type="DEFAULT_VEHTYPE" speed="14.32" pos="55.67" lane="E0E1_0" slope="0.00"/>
        <vehicle id="1" x="98.40" y="41.61" angle="180.00" type="DEFAULT_VEHTYPE" speed="11.88" pos="51.19" lane="B1B0_0" slope="0.00"/>
        <vehicle id="10" x="269.82" y="401.60" angle="270.00" type="DEFAULT_VEHTYPE" speed="6.80" pos="22.98" lane="D4C4_0" slope="0.00"/>
        <vehicle id="11" x="141.83" y="298.40" angle="90.00" type="DEFAULT_VEHTYPE" speed="9.01" pos="34.63" lane="B3C3_0" slope="0.00"/>
        <vehicle id="12" x="398.40" y="267.67" angle="180.00" type="DEFAULT_VEHTYPE" speed="7.81" pos="25.13" lane="E3E2_0" slope="0.00"/>
        <vehicle id="13" x="25.64" y="198.40" angle="90.00" type="DEFAULT_VEHTYPE" speed="6.66" pos="18.44" lane="A2B2_0" slope="0.00"/>
        <vehicle id="14" x="385.25" y="1.60" angle="270.00" type="DEFAULT_VEHTYPE" speed="3.99" pos="11.55" lane="E0D0_0" slope="0.00"/>
        <vehicle id="15" x="285.23" y="401.60" angle="270.00" type="DEFAULT_VEHTYPE" speed="2.47" pos="7.57" lane="D4C4_0" slope="0.00"/>
        <vehicle id="16" x="187.70" y="301.60" angle="270.00" type="DEFAULT_VEHTYPE" speed="0.00" pos="5.10" lane="C3B3_0" slope="0.00"/>
        <vehicle id="2" x="398.40" y="176.47" angle="180.00" type="DEFAULT_VEHTYPE" speed="8.53" pos="16.33" lane="E2E1_0" slope="0.00"/>
        <vehicle id="3" x="369.78" y="201.60" angle="270.00" type="DEFAULT_VEHTYPE" speed="11.33" pos="23.02" lane="E2D2_0" slope="0.00"/>
        <vehicle id="4" x="292.24" y="1.60" angle="346.33" type="DEFAULT_VEHTYPE" speed="2.66" pos="0.56" lane="D0C0_0" slope="0.00"/>
        <vehicle id="5" x="98.46" y="7.12" angle="179.36" type="DEFAULT_VEHTYPE" speed="2.61" pos="0.10" lane=":B0_2_0" slope="0.00"/>
        <vehicle id="6" x="-1.48" y="2.38" angle="178.66" type="DEFAULT_VEHTYPE" speed="5.88" pos="0.83" lane=":A0_0_0" slope="0.00"/>
        <vehicle id="7" x="212.04" y="101.60" angle="270.00" type="DEFAULT_VEHTYPE" speed="6.79" pos="80.76" lane="D1C1_0" slope="0.00"/>
        <vehicle id="8" x="98.40" y="20.75" angle="180.00" type="DEFAULT_VEHTYPE" speed="9.63" pos="72.05" lane="B1B0_0" slope="0.00"/>
        <vehicle id="9" x="236.24" y="401.60" angle="270.00" type="DEFAULT_VEHTYPE" speed="11.56" pos="56.56" lane="D4C4_0" slope="0.00"/>
    </timestep>
    <timestep time="17.00">
        <vehicle id="0" x="401.60" y="72.87" angle="0.00" type="DEFAULT_VEHTYPE" speed="14.01" pos="69.67" lane="E0E1_0" slope="0.00"/>
        <vehicle id="1" x="98.40" y="30.81" angle="180.00" type="DEFAULT_VEHTYPE" speed="10.80" pos="61.99" lane="B1B0_0" slope="0.00"/>
        <vehicle id="10" x="261.62" y="401.60" angle="270.00" type="DEFAULT_VEHTYPE" speed="8.20" pos="31.18" lane="D4C4_0" slope="0.00"/>
        <vehicle id="11" x="152.20" y="298.40" angle="90.00" type="DEFAULT_VEHTYPE" speed="10.38" pos="45.00" lane="B3C3_0" slope="0.00"/>
        <vehicle id="12" x="398.40" y="258.21" angle="180.00" type="DEFAULT_VEHTYPE" speed="9.45" pos="34.59" lane="E3E2_0" slope="0.00"/>
        <vehicle id="13" x="34.43" y="198.40" angle="90.00" type="DEFAULT_VEHTYPE" speed="8.79" pos="27.23" lane="A2B2_0" slope="0.00"/>
        <vehicle id="14" x="379.20" y="1.60" angle="270.00" type="DEFAULT_VEHTYPE" speed="6.04" pos="17.60" lane="E0D0_0" slope="0.00"/>
        <vehicle id="15" x="280.79" y="401.60" angle="270.00" type="DEFAULT_VEHTYPE" speed="4.44" pos="12.01" lane="D4C4_0" slope="0.00"/>
        <vehicle id="16" x="185.69" y="301.60" angle="270.00" type="DEFAULT_VEHTYPE" speed="2.01" pos="7.11" lane="C3B3_0" slope="0.00"/>
        <vehicle id="17" x="112.30" y="398.40" angle="90.00" type="DEFAULT_VEHTYPE" speed="0.00" pos="5.10" lane="B4C4_0" slope="0.00"/>
        <vehicle id="2" x="398.40" y="165.91" angle="180.00" type="DEFAULT_VEHTYPE" speed="10.56" pos="26.89" lane="E2E1_0" slope="0.00"/>
        <vehicle id="3" x="357.02" y="201.60" angle="270.00" type="DEFAULT_VEHTYPE" speed="12.76" pos="35.78" lane="E2D2_0" slope="0.00"/>
        <vehicle id="4" x="287.08" y="1.60" angle="270.00" type="DEFAULT_VEHTYPE" speed="5.16" pos="5.72" lane="D0C0_0" slope="0.00"/>
        <vehicle id="5" x="99.62" y="5.79" angle="164.84" type="DEFAULT_VEHTYPE" speed="1.81" pos="1.91" lane=":B0_2_0" slope="0.00"/>
        <vehicle id="6" x="1.51" y="-1.36" angle="140.10" type="DEFAULT_VEHTYPE" speed="5.20" pos="6.03" lane=":A0_0_0" slope="0.00"/>
        <vehicle id="7" x="207.88" y="101.60" angle="270.00" type="DEFAULT_VEHTYPE" speed="4.15" pos="84.92" lane="D1C1_0" slope="0.00"/>
        <vehicle id="8" x="98.40" y="15.56" angle="180.00" type="DEFAULT_VEHTYPE" speed="5.19" pos="77.24" lane="B1B0_0" slope="0.00"/>
        <vehicle id="9" x="225.52" y="401.60" angle="270.00" type="DEFAULT_VEHTYPE" speed="10.72" pos="67.28" lane="D4C4_0" slope="0.00"/>
    </timestep>
    <timestep time="18.00">
        <vehicle id="0" x="401.60" y="85.00" angle="0.00" type="DEFAULT_VEHTYPE" speed="12.13" pos="81.80" lane="E0E1_0" slope="0.00"/>
        <vehicle id="1" x="98.40" y="24.50" angle="180.00" type="DEFAULT_VEHTYPE" speed="6.30" pos="68.30" lane="B1B0_0" slope="0.00"/>
        <vehicle id="10" x="251.76" y="401.60" angle="270.00" type="DEFAULT_VEHTYPE" speed="9.87" pos="41.04" lane="D4C4_0" slope="0.00"/>
        <vehicle id="11" x="164.81" y="298.40" angle="90.00" type="DEFAULT_VEHTYPE" speed="12.61" pos="57.61" lane="B3C3_0" slope="0.00"/>
        <vehicle id="12" x="398.40" y="246.59" angle="180.00" type="DEFAULT_VEHTYPE" speed="11.63" pos="46.21" lane="E3E2_0" slope="0.00"/>
        <vehicle id="13" x="44.56" y="198.40" angle="90.00" type="DEFAULT_VEHTYPE" speed="10.14" pos="37.36" lane="A2B2_0" slope="0.00"/>
        <vehicle id="14" x="371.20" y="1.60" angle="270.00" type="DEFAULT_VEHTYPE" speed="8.00" pos="25.60" lane="E0D0_0" slope="0.00"/>
        <vehicle id="15" x="273.92" y="401.60" angle="270.00" type="DEFAULT_VEHTYPE" speed="6.87" pos="18.88" lane="D4C4_0" slope="0.00"/>
        <vehicle id="16" x="181.85" y="301.60" angle="270.00" type="DEFAULT_VEHTYPE" speed="3.84" pos="10.95" lane="C3B3_0" slope="0.00"/>
        <vehicle id="17" x="114.05" y="398.40" angle="90.00" type="DEFAULT_VEHTYPE" speed="1.75" pos="6.85" lane="B4C4_0" slope="0.00"/>
        <vehicle id="18" x="312.30" y="398.40" angle="90.00" type="DEFAULT_VEHTYPE" speed="0.00" pos="5.10" lane="D4E4_0" slope="0.00"/>
        <vehicle id="2" x="398.40" y="153.68" angle="180.00" type="DEFAULT_VEHTYPE" speed="12.23" pos="39.12" lane="E2E1_0" slope="0.00"/>
        <vehicle id="3" x="342.28" y="201.60" angle="270.00" type="DEFAULT_VEHTYPE" speed="14.74" pos="50.52" lane="E2D2_0" slope="0.00"/>
        <vehicle id="4" x="279.80" y="1.60" angle="270.00" type="DEFAULT_VEHTYPE" speed="7.28" pos="13.00" lane="D0C0_0" slope="0.00"/>
        <vehicle id="5" x="101.05" y="6.37" angle="129.23" type="DEFAULT_VEHTYPE" speed="1.76" pos="3.67" lane=":B0_2_0" slope="0.00"/>
        <vehicle id="6" x="6.92" y="-1.60" angle="92.08" type="DEFAULT_VEHTYPE" speed="5.43" pos="3.72" lane="A0B0_0" slope="0.00"/>
        <vehicle id="7" x="202.89" y="103.18" angle="289.04" type="DEFAULT_VEHTYPE" speed="5.41" pos="4.73" lane=":C1_4_0" slope="0.00"/>
        <vehicle id="8" x="98.40" y="13.61" angle="180.00" type="DEFAULT_VEHTYPE" speed="1.94" pos="79.19" lane="B1B0_0" slope="0.00"/>
        <vehicle id="9" x="214.35" y="401.60" angle="270.00" type="DEFAULT_VEHTYPE" speed="11.18" pos="78.45" lane="D4C4_0" slope="0.00"/>
    </timestep>
    <timestep time="19.00">
        <vehicle id="0" x="401.60" y="92.64" angle="0.00" type="DEFAULT_VEHTYPE" speed="7.63" pos="89.44" lane="E0E1_0" slope="0.00"/>
        <vehicle id="1" x="98.40" y="22.22" angle="180.00" type="DEFAULT_VEHTYPE" speed="2.29" pos="70.58" lane="B1B0_0" slope="0.00"/>
        <vehicle id="10" x="239.53" y="401.60" angle="270.00" type="DEFAULT_VEHTYPE" speed="12.23" pos="53.27" lane="D4C4_0" slope="0.00"/>
        <vehicle id="11" x="177.53" y="298.40" angle="90.00" type="DEFAULT_VEHTYPE" speed="12.72" pos="70.33" lane="B3C3_0" slope="0.00"/>
        <vehicle id="12" x="398.40" y="232.78" angle="180.00" type="DEFAULT_VEHTYPE" speed="13.80" pos="60.02" lane="E3E2_0" slope="0.00"/>
        <vehicle id="13" x="56.11" y="198.40" angle="90.00" type="DEFAULT_VEHTYPE" speed="11.55" pos="48.91" lane="A2B2_0" slope="0.00"/>
        <vehicle id="14" x="361.16" y="1.60" angle="270.00" type="DEFAULT_VEHTYPE" speed="10.04" pos="35.64" lane="E0D0_0" slope="0.00"/>
        <vehicle id="15" x="265.54" y="401.60" angle="270.00" type="DEFAULT_VEHTYPE" speed="8.37" pos="27.26" lane="D4C4_0" slope="0.00"/>
        <vehicle id="16" x="176.48" y="301.60" angle="270.00" type="DEFAULT_VEHTYPE" speed="5.37" pos="16.32" lane="C3B3_0" slope="0.00"/>
        <vehicle id="17" x="117.71" y="398.40" angle="90.00" type="DEFAULT_VEHTYPE" speed="3.66" pos="10.51" lane="B4C4_0" slope="0.00"/>
        <vehicle id="18" x="314.51" y="398.40" angle="90.00" type="DEFAULT_VEHTYPE" speed="2.21" pos="7.31" lane="D4E4_0" slope="0.00"/>
        <vehicle id="19" x="387.70" y="101.60" angle="270.00" type="DEFAULT_VEHTYPE" speed="0.00" pos="5.10" lane="E1D1_0" slope="0.00"/>
        <vehicle id="2" x="398.40" y="139.95" angle="180.00" type="DEFAULT_VEHTYPE" speed="13.72" pos="52.85" lane="E2E1_0" slope="0.00"/>
        <vehicle id="3" x="328.40" y="201.60" angle="270.00" type="DEFAULT_VEHTYPE" speed="13.88" pos="64.40" lane="E2D2_0" slope="0.00"/>
        <vehicle id="4" x="271.18" y="1.60" angle="270.00" type="DEFAULT_VEHTYPE" speed="8.62" pos="21.62" lane="D0C0_0" slope="0.00"/>
        <vehicle id="5" x="101.60" y="8.07" angle="65.45" type="DEFAULT_VEHTYPE" speed="1.87" pos="0.87" lane="B0B1_0" slope="0.00"/>
        <vehicle id="6" x="14.08" y="-1.60" angle="90.00" type="DEFAULT_VEHTYPE" speed="7.16" pos="10.88" lane="A0B0_0" slope="0.00"/>