<?xml version="1.0" encoding="UTF-8"?>

<!-- generated on 2024-01-30 17:56:45 by Eclipse SUMO GUI Version 1.19.0
<configuration xmlns:xsi="http://www.w3.org/2001/XMLSchema-instance" xsi:noNamespaceSchemaLocation="http://sumo.dlr.de/xsd/sumoConfiguration.xsd">

    <input>
        <net-file value="C:\Users\nicka\School\Capstone\Sumo\config\network.net.xml"/>
        <route-files value="C:\Users\nicka\School\Capstone\Sumo\config\routes.rou.xml"/>
    </input>

    <output>
        <emission-output value="C:/Users/nicka/School/Capstone/Sumo/RawOutputs/emission_rawOut.xml"/>
        <fcd-output value="C:/Users/nicka/School/Capstone/Sumo/RawOutputs/fcd-output_rawOut.xml"/>
        <tripinfo-output value="C:/Users/nicka/School/Capstone/Sumo/RawOutputs/tripinfo_rawOut.xml"/>
    </output>

    <time>
        <begin value="0"/>
        <end value="3600"/>
    </time>

</configuration>
-->

<tripinfos xmlns:xsi="http://www.w3.org/2001/XMLSchema-instance" xsi:noNamespaceSchemaLocation="http://sumo.dlr.de/xsd/tripinfo_file.xsd">
    <tripinfo id="13" depart="13.00" departLane="A2B2_0" departPos="5.10" departSpeed="0.00" departDelay="0.00" arrival="22.00" arrivalLane="A2B2_0" arrivalPos="85.60" arrivalSpeed="15.53" duration="9.00" routeLength="80.50" waitingTime="0.00" waitingCount="0" stopTime="0.00" timeLoss="3.40" rerouteNo="0" devices="tripinfo_13 emissions_13 fcd_13" vType="DEFAULT_VEHTYPE" speedFactor="1.12" vaporized="">
        <emissions CO_abs="1019.442004" CO2_abs="55464.125749" HC_abs="5.962446" PMx_abs="1.097997" NOx_abs="23.545158" fuel_abs="17690.471821" electricity_abs="0"/>
    </tripinfo>
    <tripinfo id="1" depart="1.00" departLane="B2B1_0" departPos="5.10" departSpeed="0.00" departDelay="0.00" arrival="24.00" arrivalLane="B1B0_0" arrivalPos="85.60" arrivalSpeed="5.87" duration="23.00" routeLength="180.50" waitingTime="0.00" waitingCount="0" stopTime="0.00" timeLoss="8.99" rerouteNo="0" devices="tripinfo_1 emissions_1 fcd_1" vType="DEFAULT_VEHTYPE" speedFactor="0.94" vaporized="">
        <emissions CO_abs="1555.414261" CO2_abs="74166.869674" HC_abs="8.822572" PMx_abs="1.376058" NOx_abs="31.021863" fuel_abs="23655.991981" electricity_abs="0"/>
    </tripinfo>
    <tripinfo id="6" depart="6.00" departLane="A1A0_0" departPos="5.10" departSpeed="0.00" departDelay="0.00" arrival="33.00" arrivalLane="B0C0_0" arrivalPos="85.60" arrivalSpeed="13.44" duration="27.00" routeLength="281.84" waitingTime="0.00" waitingCount="0" stopTime="0.00" timeLoss="6.01" rerouteNo="0" devices="tripinfo_6 emissions_6 fcd_6" vType="DEFAULT_VEHTYPE" speedFactor="1.05" vaporized="">
        <emissions CO_abs="1724.952614" CO2_abs="100410.903588" HC_abs="10.160010" PMx_abs="1.897484" NOx_abs="41.797714" fuel_abs="32026.428304" electricity_abs="0"/>
    </tripinfo>
    <tripinfo id="21" depart="21.00" departLane="B1B2_0" departPos="5.10" departSpeed="0.00" departDelay="0.00" arrival="39.00" arrivalLane="B2C2_0" arrivalPos="85.60" arrivalSpeed="13.48" duration="18.00" routeLength="175.13" waitingTime="0.00" waitingCount="0" stopTime="0.00" timeLoss="4.96" rerouteNo="0" devices="tripinfo_21 emissions_21 fcd_21" vType="DEFAULT_VEHTYPE" speedFactor="1.01" vaporized="">
        <emissions CO_abs="1436.799949" CO2_abs="83450.324130" HC_abs="8.469929" PMx_abs="1.532486" NOx_abs="34.595591" fuel_abs="26616.836757" electricity_abs="0"/>
    </tripinfo>
    <tripinfo id="29" depart="29.00" departLane="A4B4_0" departPos="5.10" departSpeed="0.00" departDelay="0.00" arrival="47.00" arrivalLane="B4C4_0" arrivalPos="85.60" arrivalSpeed="12.46" duration="18.00" routeLength="184.50" waitingTime="0.00" waitingCount="0" stopTime="0.00" timeLoss="3.58" rerouteNo="0" devices="tripinfo_29 emissions_29 fcd_29" vType="DEFAULT_VEHTYPE" speedFactor="0.93" vaporized="">
        <emissions CO_abs="1028.467425" CO2_abs="62558.685757" HC_abs="6.144646" PMx_abs="1.066330" NOx_abs="25.332284" fuel_abs="19953.432663" electricity_abs="0"/>
    </tripinfo>
    <tripinfo id="7" depart="7.00" departLane="D1C1_0" departPos="5.10" departSpeed="0.00" departDelay="0.00" arrival="48.00" arrivalLane="C3C2_0" arrivalPos="85.60" arrivalSpeed="11.45" duration="41.00" routeLength="365.40" waitingTime="0.00" waitingCount="0" stopTime="0.00" timeLoss="9.32" rerouteNo="0" devices="tripinfo_7 emissions_7 fcd_7" vType="DEFAULT_VEHTYPE" speedFactor="0.89" vaporized="">
        <emissions CO_abs="2234.680412" CO2_abs="129772.383812" HC_abs="13.197305" PMx_abs="2.270738" NOx_abs="53.188068" fuel_abs="41391.583957" electricity_abs="0"/>
    </tripinfo>
    <tripinfo id="17" depart="17.00" departLane="B4C4_0" departPos="5.10" departSpeed="0.00" departDelay="0.00" arrival="49.00" arrivalLane="C3C4_0" arrivalPos="85.60" arrivalSpeed="12.59" duration="32.00" routeLength="265.40" waitingTime="0.00" waitingCount="0" stopTime="0.00" timeLoss="9.78" rerouteNo="0" devices="tripinfo_17 emissions_17 fcd_17" vType="DEFAULT_VEHTYPE" speedFactor="0.94" vaporized="">
        <emissions CO_abs="2325.769743" CO2_abs="121305.459492" HC_abs="13.417093" PMx_abs="2.271945" NOx_abs="50.740976" fuel_abs="38690.987159" electricity_abs="0"/>
    </tripinfo>
    <tripinfo id="39" depart="41.00" departLane="B2B1_0" departPos="5.10" departSpeed="0.00" departDelay="2.00" arrival="62.00" arrivalLane="B1C1_0" arrivalPos="85.60" arrivalSpeed="11.59" duration="21.00" routeLength="180.30" waitingTime="0.00" waitingCount="0" stopTime="0.00" timeLoss="4.69" rerouteNo="0" devices="tripinfo_39 emissions_39 fcd_39" vType="DEFAULT_VEHTYPE" speedFactor="0.90" vaporized="">
        <emissions CO_abs="1385.450102" CO2_abs="73799.763913" HC_abs="8.042487" PMx_abs="1.354883" NOx_abs="30.757846" fuel_abs="23538.815901" electricity_abs="0"/>
    </tripinfo>
    <tripinfo id="4" depart="4.00" departLane="C0D0_0" departPos="5.10" departSpeed="0.00" departDelay="0.00" arrival="64.00" arrivalLane="A1A0_0" arrivalPos="89.60" arrivalSpeed="13.95" duration="60.00" routeLength="561.22" waitingTime="0.00" waitingCount="0" stopTime="0.00" timeLoss="18.26" rerouteNo="0" devices="tripinfo_4 emissions_4 fcd_4" vType="DEFAULT_VEHTYPE" speedFactor="1.03" vaporized="">
        <emissions CO_abs="3760.356065" CO2_abs="212256.437584" HC_abs="22.020627" PMx_abs="3.929782" NOx_abs="88.037492" fuel_abs="67700.133068" electricity_abs="0"/>
    </tripinfo>
    <tripinfo id="37" depart="37.00" departLane="D1C1_0" departPos="5.10" departSpeed="0.00" departDelay="0.00" arrival="66.00" arrivalLane="C0B0_0" arrivalPos="85.60" arrivalSpeed="15.23" duration="29.00" routeLength="274.92" waitingTime="0.00" waitingCount="0" stopTime="0.00" timeLoss="10.92" rerouteNo="0" devices="tripinfo_37 emissions_37 fcd_37" vType="DEFAULT_VEHTYPE" speedFactor="1.18" vaporized="">
        <emissions CO_abs="2640.896151" CO2_abs="142248.194932" HC_abs="15.423262" PMx_abs="2.893007" NOx_abs="61.053176" fuel_abs="45370.462599" electricity_abs="0"/>
    </tripinfo>
    <tripinfo id="42" depart="42.00" departLane="C0B0_0" departPos="5.10" departSpeed="0.00" departDelay="0.00" arrival="70.00" arrivalLane="B1B0_0" arrivalPos="85.60" arrivalSpeed="14.19" duration="28.00" routeLength="265.40" waitingTime="0.00" waitingCount="0" stopTime="0.00" timeLoss="9.13" rerouteNo="0" devices="tripinfo_42 emissions_42 fcd_42" vType="DEFAULT_VEHTYPE" speedFactor="1.09" vaporized="">
        <emissions CO_abs="2429.443633" CO2_abs="136166.094928" HC_abs="14.308837" PMx_abs="2.711802" NOx_abs="57.952607" fuel_abs="43430.571466" electricity_abs="0"/>
    </tripinfo>
    <tripinfo id="57" depart="57.00" departLane="E2E1_0" departPos="5.10" departSpeed="0.00" departDelay="0.00" arrival="75.00" arrivalLane="E1D1_0" arrivalPos="85.60" arrivalSpeed="15.66" duration="18.00" routeLength="175.13" waitingTime="0.00" waitingCount="0" stopTime="0.00" timeLoss="5.71" rerouteNo="0" devices="tripinfo_57 emissions_57 fcd_57" vType="DEFAULT_VEHTYPE" speedFactor="1.14" vaporized="">
        <emissions CO_abs="1709.645435" CO2_abs="96764.563906" HC_abs="10.099333" PMx_abs="1.958241" NOx_abs="41.321099" fuel_abs="30863.297632" electricity_abs="0"/>
    </tripinfo>
    <tripinfo id="3" depart="3.00" departLane="E1E2_0" departPos="5.10" departSpeed="0.00" departDelay="0.00" arrival="78.00" arrivalLane="A2A3_0" arrivalPos="85.60" arrivalSpeed="13.90" duration="75.00" routeLength="574.93" waitingTime="21.00" waitingCount="1" stopTime="0.00" timeLoss="34.48" rerouteNo="0" devices="tripinfo_3 emissions_3 fcd_3" vType="DEFAULT_VEHTYPE" speedFactor="1.08" vaporized="">
        <emissions CO_abs="7060.141879" CO2_abs="271977.606384" HC_abs="38.505777" PMx_abs="5.553927" NOx_abs="115.932825" fuel_abs="86749.326212" electricity_abs="0"/>
    </tripinfo>
    <tripinfo id="18" depart="18.00" departLane="D4E4_0" departPos="5.10" departSpeed="0.00" departDelay="0.00" arrival="82.00" arrivalLane="D0C0_0" arrivalPos="85.60" arrivalSpeed="12.17" duration="64.00" routeLength="672.86" waitingTime="0.00" waitingCount="0" stopTime="0.00" timeLoss="11.18" rerouteNo="0" devices="tripinfo_18 emissions_18 fcd_18" vType="DEFAULT_VEHTYPE" speedFactor="0.94" vaporized="">
        <emissions CO_abs="2540.558054" CO2_abs="188989.226686" HC_abs="15.790530" PMx_abs="2.955223" NOx_abs="74.127095" fuel_abs="60279.123457" electricity_abs="0"/>
    </tripinfo>
    <tripinfo id="44" depart="44.00" departLane="A2B2_0" departPos="5.10" departSpeed="0.00" departDelay="0.00" arrival="82.00" arrivalLane="A1A2_0" arrivalPos="85.60" arrivalSpeed="13.61" duration="38.00" routeLength="364.39" waitingTime="0.00" waitingCount="0" stopTime="0.00" timeLoss="10.60" rerouteNo="0" devices="tripinfo_44 emissions_44 fcd_44" vType="DEFAULT_VEHTYPE" speedFactor="1.04" vaporized="">
        <emissions CO_abs="2834.843098" CO2_abs="161599.204817" HC_abs="16.632744" PMx_abs="3.093285" NOx_abs="67.815025" fuel_abs="51542.633904" electricity_abs="0"/>
    </tripinfo>
    <tripinfo id="11" depart="11.00" departLane="B3C3_0" departPos="5.10" departSpeed="0.00" departDelay="0.00" arrival="83.00" arrivalLane="A4B4_0" arrivalPos="89.60" arrivalSpeed="13.35" duration="72.00" routeLength="461.58" waitingTime="21.00" waitingCount="1" stopTime="0.00" timeLoss="37.49" rerouteNo="0" devices="tripinfo_11 emissions_11 fcd_11" vType="DEFAULT_VEHTYPE" speedFactor="1.03" vaporized="">
        <emissions CO_abs="6901.727082" CO2_abs="241097.494641" HC_abs="37.028895" PMx_abs="4.871458" NOx_abs="102.787867" fuel_abs="76900.321143" electricity_abs="0"/>
    </tripinfo>
    <tripinfo id="16" depart="16.00" departLane="C3B3_0" departPos="5.10" departSpeed="0.00" departDelay="0.00" arrival="84.00" arrivalLane="E3E4_0" arrivalPos="89.60" arrivalSpeed="12.06" duration="68.00" routeLength="474.56" waitingTime="16.00" waitingCount="1" stopTime="0.00" timeLoss="27.08" rerouteNo="0" devices="tripinfo_16 emissions_16 fcd_16" vType="DEFAULT_VEHTYPE" speedFactor="0.88" vaporized="">
        <emissions CO_abs="5191.410151" CO2_abs="193256.655521" HC_abs="28.044603" PMx_abs="3.544318" NOx_abs="79.971279" fuel_abs="61641.243321" electricity_abs="0"/>
    </tripinfo>
    <tripinfo id="20" depart="20.00" departLane="D2C2_0" departPos="5.10" departSpeed="0.00" departDelay="0.00" arrival="86.00" arrivalLane="A1A2_0" arrivalPos="85.60" arrivalSpeed="14.09" duration="66.00" routeLength="469.56" waitingTime="13.00" waitingCount="1" stopTime="0.00" timeLoss="29.82" rerouteNo="0" devices="tripinfo_20 emissions_20 fcd_20" vType="DEFAULT_VEHTYPE" speedFactor="1.02" vaporized="">
        <emissions CO_abs="6005.117757" CO2_abs="250769.333299" HC_abs="33.206843" PMx_abs="4.999542" NOx_abs="106.749772" fuel_abs="79984.562134" electricity_abs="0"/>
    </tripinfo>
    <tripinfo id="30" depart="32.00" departLane="E4E3_0" departPos="5.10" departSpeed="0.00" departDelay="2.00" arrival="86.00" arrivalLane="D0E0_0" arrivalPos="89.60" arrivalSpeed="16.03" duration="54.00" routeLength="574.95" waitingTime="0.00" waitingCount="0" stopTime="0.00" timeLoss="18.03" rerouteNo="0" devices="tripinfo_30 emissions_30 fcd_30" vType="DEFAULT_VEHTYPE" speedFactor="1.18" vaporized="">
        <emissions CO_abs="3156.729953" CO2_abs="200529.490640" HC_abs="18.989686" PMx_abs="3.675978" NOx_abs="82.613301" fuel_abs="63959.599740" electricity_abs="0"/>
    </tripinfo>
    <tripinfo id="48" depart="48.00" departLane="E4E3_0" departPos="5.10" departSpeed="0.00" departDelay="0.00" arrival="86.00" arrivalLane="C3B3_0" arrivalPos="85.60" arrivalSpeed="11.15" duration="38.00" routeLength="379.13" waitingTime="0.00" waitingCount="0" stopTime="0.00" timeLoss="5.83" rerouteNo="0" devices="tripinfo_48 emissions_48 fcd_48" vType="DEFAULT_VEHTYPE" speedFactor="0.88" vaporized="">
        <emissions CO_abs="1598.257970" CO2_abs="107847.486045" HC_abs="9.697761" PMx_abs="1.697616" NOx_abs="42.581889" fuel_abs="34398.604949" electricity_abs="0"/>
    </tripinfo>
    <tripinfo id="28" depart="28.00" departLane="B0A0_0" departPos="5.10" departSpeed="0.00" departDelay="0.00" arrival="93.00" arrivalLane="D2D3_0" arrivalPos="85.60" arrivalSpeed="5.48" duration="65.00" routeLength="671.11" waitingTime="2.00" waitingCount="1" stopTime="0.00" timeLoss="20.37" rerouteNo="0" devices="tripinfo_28 emissions_28 fcd_28" vType="DEFAULT_VEHTYPE" speedFactor="1.13" vaporized="">
        <emissions CO_abs="4293.248412" CO2_abs="242866.551945" HC_abs="25.146884" PMx_abs="4.580888" NOx_abs="100.712403" fuel_abs="77463.302364" electricity_abs="0"/>
    </tripinfo>
    <tripinfo id="23" depart="23.00" departLane="A3A2_0" departPos="5.10" departSpeed="0.00" departDelay="0.00" arrival="94.00" arrivalLane="B2B3_0" arrivalPos="85.60" arrivalSpeed="5.59" duration="71.00" routeLength="280.10" waitingTime="33.00" waitingCount="1" stopTime="0.00" timeLoss="46.31" rerouteNo="0" devices="tripinfo_23 emissions_23 fcd_23" vType="DEFAULT_VEHTYPE" speedFactor="0.89" vaporized="">
        <emissions CO_abs="8173.542132" CO2_abs="209889.607705" HC_abs="42.128252" PMx_abs="4.494824" NOx_abs="91.550314" fuel_abs="66947.341015" electricity_abs="0"/>
    </tripinfo>
    <tripinfo id="43" depart="43.00" departLane="E4E3_0" departPos="5.10" departSpeed="0.00" departDelay="0.00" arrival="97.00" arrivalLane="C2C3_0" arrivalPos="85.60" arrivalSpeed="4.66" duration="54.00" routeLength="473.76" waitingTime="6.00" waitingCount="2" stopTime="0.00" timeLoss="20.03" rerouteNo="0" devices="tripinfo_43 emissions_43 fcd_43" vType="DEFAULT_VEHTYPE" speedFactor="1.04" vaporized="">
        <emissions CO_abs="3992.853108" CO2_abs="186152.588584" HC_abs="22.501355" PMx_abs="3.521229" NOx_abs="77.431684" fuel_abs="59374.580201" electricity_abs="0"/>
    </tripinfo>
    <tripinfo id="53" depart="53.00" departLane="A3A2_0" departPos="5.10" departSpeed="0.00" departDelay="0.00" arrival="97.00" arrivalLane="C1B1_0" arrivalPos="85.60" arrivalSpeed="14.47" duration="44.00" routeLength="469.56" waitingTime="0.00" waitingCount="0" stopTime="0.00" timeLoss="10.74" rerouteNo="0" devices="tripinfo_53 emissions_53 fcd_53" vType="DEFAULT_VEHTYPE" speedFactor="1.10" vaporized="">
        <emissions CO_abs="3103.434217" CO2_abs="188319.981347" HC_abs="18.580790" PMx_abs="3.621485" NOx_abs="78.899337" fuel_abs="60065.211046" electricity_abs="0"/>
    </tripinfo>
    <tripinfo id="2" depart="2.00" departLane="D2E2_0" departPos="5.10" departSpeed="0.00" departDelay="0.00" arrival="98.00" arrivalLane="D1D2_0" arrivalPos="85.60" arrivalSpeed="8.92" duration="96.00" routeLength="364.39" waitingTime="44.00" waitingCount="2" stopTime="0.00" timeLoss="68.07" rerouteNo="0" devices="tripinfo_2 emissions_2 fcd_2" vType="DEFAULT_VEHTYPE" speedFactor="1.01" vaporized="">
        <emissions CO_abs="11571.614454" CO2_abs="304310.381530" HC_abs="59.793872" PMx_abs="6.646060" NOx_abs="133.539830" fuel_abs="97063.882532" electricity_abs="0"/>
    </tripinfo>
    <tripinfo id="38" depart="38.00" departLane="E2E1_0" departPos="5.10" departSpeed="0.00" departDelay="0.00" arrival="98.00" arrivalLane="C1C2_0" arrivalPos="85.60" arrivalSpeed="9.46" duration="60.00" routeLength="369.76" waitingTime="14.00" waitingCount="1" stopTime="0.00" timeLoss="34.39" rerouteNo="0" devices="tripinfo_38 emissions_38 fcd_38" vType="DEFAULT_VEHTYPE" speedFactor="1.10" vaporized="">
        <emissions CO_abs="5855.142768" CO2_abs="214049.222388" HC_abs="31.736223" PMx_abs="4.461148" NOx_abs="92.667116" fuel_abs="68272.667047" electricity_abs="0"/>
    </tripinfo>
    <tripinfo id="27" depart="27.00" departLane="D0E0_0" departPos="5.10" departSpeed="0.00" departDelay="0.00" arrival="102.00" arrivalLane="C4D4_0" arrivalPos="85.60" arrivalSpeed="12.95" duration="75.00" routeLength="773.45" waitingTime="0.00" waitingCount="0" stopTime="0.00" timeLoss="14.03" rerouteNo="0" devices="tripinfo_27 emissions_27 fcd_27" vType="DEFAULT_VEHTYPE" speedFactor="0.95" vaporized="">
        <emissions CO_abs="3277.443038" CO2_abs="227932.054350" HC_abs="20.192152" PMx_abs="3.755027" NOx_abs="91.142160" fuel_abs="72700.033053" electricity_abs="0"/>
    </tripinfo>
    <tripinfo id="0" depart="0.00" departLane="D0E0_0" departPos="5.10" departSpeed="0.00" departDelay="0.00" arrival="103.00" arrivalLane="A0B0_0" arrivalPos="89.60" arrivalSpeed="13.65" duration="103.00" routeLength="782.77" waitingTime="20.00" waitingCount="2" stopTime="0.00" timeLoss="46.57" rerouteNo="0" devices="tripinfo_0 emissions_0 fcd_0" vType="DEFAULT_VEHTYPE" speedFactor="1.06" vaporized="">
        <emissions CO_abs="9559.377093" CO2_abs="397389.191523" HC_abs="52.933459" PMx_abs="8.050299" NOx_abs="169.840164" fuel_abs="126749.860179" electricity_abs="0"/>
    </tripinfo>
    <tripinfo id="5" depart="5.00" departLane="B1B0_0" departPos="5.10" departSpeed="0.00" departDelay="0.00" arrival="103.00" arrivalLane="C2C3_0" arrivalPos="85.60" arrivalSpeed="11.02" duration="98.00" routeLength="465.19" waitingTime="35.00" waitingCount="1" stopTime="0.00" timeLoss="54.67" rerouteNo="0" devices="tripinfo_5 emissions_5 fcd_5" vType="DEFAULT_VEHTYPE" speedFactor="0.83" vaporized="">
        <emissions CO_abs="9932.531436" CO2_abs="281361.114106" HC_abs="51.827022" PMx_abs="5.873225" NOx_abs="121.891407" fuel_abs="89743.728166" electricity_abs="0"/>
    </tripinfo>
    <tripinfo id="34" depart="37.00" departLane="B3B2_0" departPos="5.10" departSpeed="0.00" departDelay="3.00" arrival="103.00" arrivalLane="B2B1_0" arrivalPos="85.60" arrivalSpeed="8.67" duration="66.00" routeLength="180.50" waitingTime="41.00" waitingCount="1" stopTime="0.00" timeLoss="52.68" rerouteNo="0" devices="tripinfo_34 emissions_34 fcd_34" vType="DEFAULT_VEHTYPE" speedFactor="0.99" vaporized="">
        <emissions CO_abs="8848.368012" CO2_abs="203714.485333" HC_abs="45.058842" PMx_abs="4.580879" NOx_abs="90.090335" fuel_abs="64978.038803" electricity_abs="0"/>
    </tripinfo>
    <tripinfo id="12" depart="12.00" departLane="E3E2_0" departPos="5.10" departSpeed="0.00" departDelay="0.00" arrival="104.00" arrivalLane="B3B4_0" arrivalPos="85.60" arrivalSpeed="13.96" duration="92.00" routeLength="569.76" waitingTime="29.00" waitingCount="2" stopTime="0.00" timeLoss="50.93" rerouteNo="0" devices="tripinfo_12 emissions_12 fcd_12" vType="DEFAULT_VEHTYPE" speedFactor="1.05" vaporized="">
        <emissions CO_abs="9279.141302" CO2_abs="315476.547378" HC_abs="49.482002" PMx_abs="6.424950" NOx_abs="134.592039" fuel_abs="100624.314643" electricity_abs="0"/>
    </tripinfo>
    <tripinfo id="45" depart="45.00" departLane="A3A2_0" departPos="5.10" departSpeed="0.00" departDelay="0.00" arrival="104.00" arrivalLane="D0D1_0" arrivalPos="85.60" arrivalSpeed="14.64" duration="59.00" routeLength="681.64" waitingTime="0.00" waitingCount="0" stopTime="0.00" timeLoss="12.68" rerouteNo="0" devices="tripinfo_45 emissions_45 fcd_45" vType="DEFAULT_VEHTYPE" speedFactor="1.09" vaporized="">
        <emissions CO_abs="3011.788522" CO2_abs="209771.138773" HC_abs="18.119182" PMx_abs="3.474509" NOx_abs="82.668410" fuel_abs="66907.487777" electricity_abs="0"/>
    </tripinfo>
    <tripinfo id="52" depart="61.00" departLane="B2B1_0" departPos="5.10" departSpeed="0.00" departDelay="9.00" arrival="105.00" arrivalLane="D0E0_0" arrivalPos="89.60" arrivalSpeed="13.83" duration="44.00" routeLength="484.29" waitingTime="0.00" waitingCount="0" stopTime="0.00" timeLoss="8.85" rerouteNo="0" devices="tripinfo_52 emissions_52 fcd_52" vType="DEFAULT_VEHTYPE" speedFactor="1.02" vaporized="">
        <emissions CO_abs="2366.626014" CO2_abs="161112.894256" HC_abs="14.455082" PMx_abs="2.820705" NOx_abs="65.370426" fuel_abs="51387.576035" electricity_abs="0"/>
    </tripinfo>
    <tripinfo id="65" depart="65.00" departLane="B3A3_0" departPos="5.10" departSpeed="0.00" departDelay="0.00" arrival="105.00" arrivalLane="A1B1_0" arrivalPos="85.60" arrivalSpeed="11.57" duration="40.00" routeLength="380.09" waitingTime="0.00" waitingCount="0" stopTime="0.00" timeLoss="7.41" rerouteNo="0" devices="tripinfo_65 emissions_65 fcd_65" vType="DEFAULT_VEHTYPE" speedFactor="0.88" vaporized="">
        <emissions CO_abs="1978.636197" CO2_abs="120832.960727" HC_abs="11.737525" PMx_abs="1.990136" NOx_abs="48.493101" fuel_abs="38540.398880" electricity_abs="0"/>
    </tripinfo>
    <tripinfo id="78" depart="78.00" departLane="B3B4_0" departPos="5.10" departSpeed="0.00" departDelay="0.00" arrival="107.00" arrivalLane="C4C3_0" arrivalPos="85.60" arrivalSpeed="13.57" duration="29.00" routeLength="269.76" waitingTime="0.00" waitingCount="0" stopTime="0.00" timeLoss="7.75" rerouteNo="0" devices="tripinfo_78 emissions_78 fcd_78" vType="DEFAULT_VEHTYPE" speedFactor="1.01" vaporized="">
        <emissions CO_abs="2161.101489" CO2_abs="125201.222953" HC_abs="12.699173" PMx_abs="2.335180" NOx_abs="52.133475" fuel_abs="39933.420039" electricity_abs="0"/>
    </tripinfo>
    <tripinfo id="10" depart="12.00" departLane="D4C4_0" departPos="5.10" departSpeed="0.00" departDelay="2.00" arrival="109.00" arrivalLane="D1E1_0" arrivalPos="85.60" arrivalSpeed="13.92" duration="97.00" routeLength="565.20" waitingTime="39.00" waitingCount="1" stopTime="0.00" timeLoss="56.45" rerouteNo="0" devices="tripinfo_10 emissions_10 fcd_10" vType="DEFAULT_VEHTYPE" speedFactor="1.09" vaporized="">
        <emissions CO_abs="10601.872470" CO2_abs="339780.909810" HC_abs="56.256174" PMx_abs="7.203029" NOx_abs="147.095549" fuel_abs="108376.511797" electricity_abs="0"/>
    </tripinfo>
    <tripinfo id="25" depart="25.00" departLane="B4B3_0" departPos="5.10" departSpeed="0.00" departDelay="0.00" arrival="110.00" arrivalLane="B1A1_0" arrivalPos="85.60" arrivalSpeed="11.26" duration="85.00" routeLength="375.13" waitingTime="42.00" waitingCount="1" stopTime="0.00" timeLoss="53.56" rerouteNo="0" devices="tripinfo_25 emissions_25 fcd_25" vType="DEFAULT_VEHTYPE" speedFactor="0.87" vaporized="">
        <emissions CO_abs="9459.725435" CO2_abs="245398.632444" HC_abs="48.811842" PMx_abs="5.096354" NOx_abs="105.694913" fuel_abs="78273.603364" electricity_abs="0"/>
    </tripinfo>
    <tripinfo id="58" depart="58.00" departLane="B2C2_0" departPos="5.10" departSpeed="0.00" departDelay="0.00" arrival="110.00" arrivalLane="D0E0_0" arrivalPos="89.60" arrivalSpeed="13.33" duration="52.00" routeLength="478.92" waitingTime="4.00" waitingCount="1" stopTime="0.00" timeLoss="16.65" rerouteNo="0" devices="tripinfo_58 emissions_58 fcd_58" vType="DEFAULT_VEHTYPE" speedFactor="1.02" vaporized="">
        <emissions CO_abs="3426.305869" CO2_abs="181817.413075" HC_abs="19.746330" PMx_abs="3.301720" NOx_abs="74.611813" fuel_abs="57991.703335" electricity_abs="0"/>
    </tripinfo>
    <tripinfo id="46" depart="46.00" departLane="D3E3_0" departPos="5.10" departSpeed="0.00" departDelay="0.00" arrival="112.00" arrivalLane="C0D0_0" arrivalPos="85.60" arrivalSpeed="12.88" duration="66.00" routeLength="661.58" waitingTime="0.00" waitingCount="0" stopTime="0.00" timeLoss="16.03" rerouteNo="0" devices="tripinfo_46 emissions_46 fcd_46" vType="DEFAULT_VEHTYPE" speedFactor="1.00" vaporized="">
        <emissions CO_abs="3499.125613" CO2_abs="217680.512604" HC_abs="20.885321" PMx_abs="3.795330" NOx_abs="88.451927" fuel_abs="69430.230586" electricity_abs="0"/>
    </tripinfo>
    <tripinfo id="76" depart="76.00" departLane="C1C0_0" departPos="5.10" departSpeed="0.00" departDelay="0.00" arrival="113.00" arrivalLane="C2D2_0" arrivalPos="85.60" arrivalSpeed="14.08" duration="37.00" routeLength="365.40" waitingTime="0.00" waitingCount="0" stopTime="0.00" timeLoss="10.22" rerouteNo="0" devices="tripinfo_76 emissions_76 fcd_76" vType="DEFAULT_VEHTYPE" speedFactor="1.03" vaporized="">
        <emissions CO_abs="2549.965729" CO2_abs="152584.781985" HC_abs="15.116289" PMx_abs="2.794050" NOx_abs="63.029150" fuel_abs="48667.533166" electricity_abs="0"/>
    </tripinfo>
    <tripinfo id="32" depart="32.00" departLane="E0D0_0" departPos="5.10" departSpeed="0.00" departDelay="0.00" arrival="115.00" arrivalLane="D3D4_0" arrivalPos="85.60" arrivalSpeed="12.90" duration="83.00" routeLength="479.13" waitingTime="29.00" waitingCount="1" stopTime="0.00" timeLoss="47.85" rerouteNo="0" devices="tripinfo_32 emissions_32 fcd_32" vType="DEFAULT_VEHTYPE" speedFactor="1.01" vaporized="">
        <emissions CO_abs="8289.441450" CO2_abs="262514.593150" HC_abs="43.765903" PMx_abs="5.314833" NOx_abs="111.953560" fuel_abs="83731.984124" electricity_abs="0"/>
    </tripinfo>
    <tripinfo id="41" depart="41.00" departLane="C4B4_0" departPos="5.10" departSpeed="0.00" departDelay="0.00" arrival="119.00" arrivalLane="E1E2_0" arrivalPos="85.60" arrivalSpeed="12.25" duration="78.00" routeLength="757.22" waitingTime="0.00" waitingCount="0" stopTime="0.00" timeLoss="18.10" rerouteNo="0" devices="tripinfo_41 emissions_41 fcd_41" vType="DEFAULT_VEHTYPE" speedFactor="0.96" vaporized="">
        <emissions CO_abs="4104.337951" CO2_abs="250155.662502" HC_abs="24.473101" PMx_abs="4.506357" NOx_abs="103.026999" fuel_abs="79788.201640" electricity_abs="0"/>
    </tripinfo>
    <tripinfo id="75" depart="75.00" departLane="E4E3_0" departPos="5.10" departSpeed="0.00" departDelay="0.00" arrival="119.00" arrivalLane="D1C1_0" arrivalPos="85.60" arrivalSpeed="13.03" duration="44.00" routeLength="479.13" waitingTime="0.00" waitingCount="0" stopTime="0.00" timeLoss="8.13" rerouteNo="0" devices="tripinfo_75 emissions_75 fcd_75" vType="DEFAULT_VEHTYPE" speedFactor="0.98" vaporized="">
        <emissions CO_abs="2312.965256" CO2_abs="157008.776981" HC_abs="14.075704" PMx_abs="2.717955" NOx_abs="63.565200" fuel_abs="50078.583356" electricity_abs="0"/>
    </tripinfo>
    <tripinfo id="19" depart="19.00" departLane="E1D1_0" departPos="5.10" departSpeed="0.00" departDelay="0.00" arrival="120.00" arrivalLane="C4B4_0" arrivalPos="85.60" arrivalSpeed="14.27" duration="101.00" routeLength="574.92" waitingTime="41.00" waitingCount="1" stopTime="0.00" timeLoss="63.97" rerouteNo="0" devices="tripinfo_19 emissions_19 fcd_19" vType="DEFAULT_VEHTYPE" speedFactor="1.16" vaporized="">
        <emissions CO_abs="11084.744204" CO2_abs="340069.294379" HC_abs="58.319560" PMx_abs="7.178845" NOx_abs="146.662961" fuel_abs="108468.822103" electricity_abs="0"/>
    </tripinfo>
    <tripinfo id="8" depart="8.00" departLane="B1B0_0" departPos="5.10" departSpeed="0.00" departDelay="0.00" arrival="121.00" arrivalLane="C4C3_0" arrivalPos="85.60" arrivalSpeed="12.81" duration="113.00" routeLength="660.03" waitingTime="37.00" waitingCount="1" stopTime="0.00" timeLoss="59.24" rerouteNo="0" devices="tripinfo_8 emissions_8 fcd_8" vType="DEFAULT_VEHTYPE" speedFactor="0.94" vaporized="">
        <emissions CO_abs="10838.868419" CO2_abs="347322.662211" HC_abs="57.487273" PMx_abs="7.056065" NOx_abs="148.681216" fuel_abs="110782.361003" electricity_abs="0"/>
    </tripinfo>
    <tripinfo id="63" depart="64.00" departLane="A0B0_0" departPos="5.10" departSpeed="0.00" departDelay="1.00" arrival="122.00" arrivalLane="E2E3_0" arrivalPos="85.60" arrivalSpeed="12.47" duration="58.00" routeLength="685.84" waitingTime="0.00" waitingCount="0" stopTime="0.00" timeLoss="7.35" rerouteNo="0" devices="tripinfo_63 emissions_63 fcd_63" vType="DEFAULT_VEHTYPE" speedFactor="0.99" vaporized="">
        <emissions CO_abs="2039.649862" CO2_abs="161822.498145" HC_abs="12.842690" PMx_abs="2.547607" NOx_abs="63.151265" fuel_abs="51614.052117" electricity_abs="0"/>
    </tripinfo>
    <tripinfo id="79" depart="79.00" departLane="B1B2_0" departPos="5.10" departSpeed="0.00" departDelay="0.00" arrival="122.00" arrivalLane="B1B0_0" arrivalPos="85.60" arrivalSpeed="14.49" duration="43.00" routeLength="270.77" waitingTime="7.00" waitingCount="2" stopTime="0.00" timeLoss="23.85" rerouteNo="0" devices="tripinfo_79 emissions_79 fcd_79" vType="DEFAULT_VEHTYPE" speedFactor="1.09" vaporized="">
        <emissions CO_abs="4052.944197" CO2_abs="145323.447451" HC_abs="21.853153" PMx_abs="2.950072" NOx_abs="62.083206" fuel_abs="46352.199430" electricity_abs="0"/>
    </tripinfo>
    <tripinfo id="22" depart="22.00" departLane="A2A3_0" departPos="5.10" departSpeed="0.00" departDelay="0.00" arrival="124.00" arrivalLane="B1B2_0" arrivalPos="85.60" arrivalSpeed="4.29" duration="102.00" routeLength="460.03" waitingTime="38.00" waitingCount="2" stopTime="0.00" timeLoss="65.32" rerouteNo="0" devices="tripinfo_22 emissions_22 fcd_22" vType="DEFAULT_VEHTYPE" speedFactor="0.97" vaporized="">
        <emissions CO_abs="11167.836847" CO2_abs="320917.134679" HC_abs="58.340384" PMx_abs="6.791253" NOx_abs="139.430013" fuel_abs="102360.424658" electricity_abs="0"/>
    </tripinfo>
    <tripinfo id="72" depart="72.00" departLane="C0D0_0" departPos="5.10" departSpeed="0.00" departDelay="0.00" arrival="127.00" arrivalLane="B1A1_0" arrivalPos="85.60" arrivalSpeed="12.66" duration="55.00" routeLength="465.20" waitingTime="2.00" waitingCount="1" stopTime="0.00" timeLoss="16.65" rerouteNo="0" devices="tripinfo_72 emissions_72 fcd_72" vType="DEFAULT_VEHTYPE" speedFactor="0.94" vaporized="">